<LesHouchesEvents version="3.0">
<header>
<!--
#*********************************************************************
#                                                                    *
#                        MadGraph5_aMC@NLO                           *
#                                                                    *
#                           Going Beyond                             *
#                                                                    *
#                   http://madgraph.hep.uiuc.edu                     *
#                   http://madgraph.phys.ucl.ac.be                   *
#                   http://amcatnlo.cern.ch                          *
#                                                                    *
#                     The MadGraph5_aMC@NLO team                     *
#                                                                    *
#....................................................................*
#                                                                    *
# This file contains all the information necessary to reproduce      *
# the events generated:                                              *
#                                                                    *
# 1. software version                                                *
# 2. proc_card          : code generation info including model       *
# 3. param_card         : model primary parameters in the LH format  *
# 4. run_card           : running parameters (collider and cuts)     *
# 5. pythia_card        : present only if pythia has been run        *
# 6. pgs_card           : present only if pgs has been run           *
# 7. delphes_cards      : present only if delphes has been run       *
#                                                                    *
#                                                                    *
#*********************************************************************
-->
<MGVersion>
2.6.4
</MGVersion>
<MG5ProcCard>
<![CDATA[
#************************************************************
#*                     MadGraph5_aMC@NLO                    *
#*                                                          *
#*                *                       *                 *
#*                  *        * *        *                   *
#*                    * * * * 5 * * * *                     *
#*                  *        * *        *                   *
#*                *                       *                 *
#*                                                          *
#*                                                          *
#*         VERSION 2.6.4                 2018-11-09         *
#*                                                          *
#*    The MadGraph5_aMC@NLO Development Team - Find us at   *
#*    https://server06.fynu.ucl.ac.be/projects/madgraph     *
#*                                                          *
#************************************************************
#*                                                          *
#*               Command File for MadGraph5_aMC@NLO         *
#*                                                          *
#*     run as ./bin/mg5_aMC  filename                       *
#*                                                          *
#************************************************************
set default_unset_couplings 99
set group_subprocesses Auto
set ignore_six_quark_processes False
set loop_optimized_output True
set loop_color_flows False
set gauge unitary
set complex_mass_scheme False
set max_npoint_for_channel 0
import model SM4fLL_UFO
define p = g u c d s u~ c~ d~ s~
define j = g u c d s u~ c~ d~ s~
define l+ = e+ mu+
define l- = e- mu-
define vl = ve vm vt
define vl~ = ve~ vm~ vt~
generate u u~ > mu+ mu- NP=2 QED=99 QCD=0
output /Users/dpappadopulo/Projects/~Physics/madminer/examples/example\
4_systematics_DY/data/mg_processes/DY_sys/
]]>
</MG5ProcCard>
<MGProcCard>
#*********************************************************************
#                        MadGraph/MadEvent                           *
#                   http://madgraph.hep.uiuc.edu                     *
#                                                                    *
#                          proc_card.dat                             *
#*********************************************************************
#                                                                    *
#            This Files is generated by MADGRAPH 5                   *
#                                                                    *
# WARNING: This Files is generated for MADEVENT (compatibility issue)*
#          This files is NOT a valid MG4 proc_card.dat               *
#          Running this in MG4 will NEVER reproduce the result of MG5*
#                                                                    *
#*********************************************************************
#*********************************************************************
# Process(es) requested : mg2 input                                  *
#*********************************************************************
# Begin PROCESS # This is TAG. Do not modify this line
u u~ > mu+ mu-           #Process
# Be carefull the coupling are here in MG5 convention
NP=2
QED=99
QCD=0
          
end_coup           # End the couplings input

done               # this tells MG there are no more procs
# End PROCESS  # This is TAG. Do not modify this line
#*********************************************************************
# Model information                                                  *
#*********************************************************************
# Begin MODEL  # This is TAG. Do not modify this line
SM4fLL_UFO
# End   MODEL  # This is TAG. Do not modify this line
#*********************************************************************
# Start multiparticle definitions                                    *
#*********************************************************************
# Begin MULTIPARTICLES # This is TAG. Do not modify this line

# End  MULTIPARTICLES # This is TAG. Do not modify this line
</MGProcCard>
<MGRunCard>
<![CDATA[
#*********************************************************************
#                       MadGraph5_aMC@NLO                            *
#                                                                    *
#                     run_card.dat MadEvent                          *
#                                                                    *
#  This file is used to set the parameters of the run.               *
#                                                                    *
#  Some notation/conventions:                                        *
#                                                                    *
#   Lines starting with a '# ' are info or comments                  *
#                                                                    *
#   mind the format:   value    = variable     ! comment             *
#*********************************************************************
#
#*******************                                                 
# Running parameters
#*******************                                                 
#                                                                    
#*********************************************************************
# Tag name for the run (one word)                                    *
#*********************************************************************
  tag_1     = run_tag ! name of the run 
#*********************************************************************
# Run to generate the grid pack                                      *
#*********************************************************************
  False     = gridpack  !True = setting up the grid pack
#*********************************************************************
# Number of events and rnd seed                                      *
# Warning: Do not generate more than 1M events in a single run       *
# If you want to run Pythia, avoid more than 50k events in a run.    *
#*********************************************************************
  1000 = nevents ! Number of unweighted events requested
 84 = iseed   ! rnd seed (0=assigned automatically=default))
#*********************************************************************
# Collider type and energy                                           *
# lpp: 0=No PDF, 1=proton, -1=antiproton, 2=photon from proton,      *
#                                         3=photon from electron     *
#*********************************************************************
     1        = lpp1    ! beam 1 type 
     1        = lpp2    ! beam 2 type
     6500.0     = ebeam1  ! beam 1 total energy in GeV
     6500.0     = ebeam2  ! beam 2 total energy in GeV
#*********************************************************************
# Beam polarization from -100 (left-handed) to 100 (right-handed)    *
#*********************************************************************
     0.0     = polbeam1 ! beam polarization for beam 1
     0.0     = polbeam2 ! beam polarization for beam 2
#*********************************************************************
# PDF CHOICE: this automatically fixes also alpha_s and its evol.    *
#*********************************************************************
     lhapdf    = pdlabel     ! PDF set
     90900   = lhaid     ! if pdlabel=lhapdf, this is the lhapdf number
#*********************************************************************
# Renormalization and factorization scales                           *
#*********************************************************************
 False = fixed_ren_scale  ! if .true. use fixed ren scale
 False        = fixed_fac_scale  ! if .true. use fixed fac scale
 91.188  = scale            ! fixed ren scale
 91.188  = dsqrt_q2fact1    ! fixed fact scale for pdf1
 91.188  = dsqrt_q2fact2    ! fixed fact scale for pdf2
 -1 = dynamical_scale_choice ! Choose one of the preselected dynamical choices
 1.0  = scalefact        ! scale factor for event-by-event scales
#*********************************************************************
# Type and output format
#*********************************************************************
  False     = gridpack  !True = setting up the grid pack
  -1.0 = time_of_flight ! threshold (in mm) below which the invariant livetime is not written (-1 means not written)
  3.0 = lhe_version       ! Change the way clustering information pass to shower.        
  True = clusinfo         ! include clustering tag in output
  sum =  event_norm       ! average/sum. Normalization of the weight in the LHEF
#*********************************************************************
# Matching - Warning! ickkw > 1 is still beta
#*********************************************************************
 0 = ickkw            ! 0 no matching, 1 MLM, 2 CKKW matching
 1 = highestmult      ! for ickkw=2, highest mult group
 1 = ktscheme         ! for ickkw=1, 1 Durham kT, 2 Pythia pTE
 1.0 = alpsfact         ! scale factor for QCD emission vx
 False = chcluster        ! cluster only according to channel diag
 True = pdfwgt           ! for ickkw=1, perform pdf reweighting
 4 = asrwgtflavor     ! highest quark flavor for a_s reweight    
#*********************************************************************
#**********************************************************
#
#**********************************************************
# Automatic ptj and mjj cuts if xqcut > 0
# (turn off for VBF and single top processes)
#**********************************************************
   False  = auto_ptj_mjj  ! Automatic setting of ptj and mjj
#**********************************************************
#                                                                    
#**********************************
# BW cutoff (M+/-bwcutoff*Gamma)
#**********************************
  15.0  = bwcutoff      ! (M+/-bwcutoff*Gamma)
#**********************************************************
# Apply pt/E/eta/dr/mij/kt_durham cuts on decay products or not
# (note that etmiss/ptll/ptheavy/ht/sorted cuts always apply)
#*************************************************************
   False  = cut_decays    ! Cut decay products 
#*************************************************************
# Number of helicities to sum per event (0 = all helicities)
# 0 gives more stable result, but longer run time (needed for
# long decay chains e.g.).
# Use >=2 if most helicities contribute, e.g. pure QCD.
#*************************************************************
   0  = nhel          ! Number of helicities used per event
#*******************                                                 
# Standard Cuts
#*******************                                                 
#                                                                    
#*********************************************************************
# Minimum and maximum pt's (for max, -1 means no cut)                *
#*********************************************************************
 15.0  = ptj       ! minimum pt for the jets
 0.0  = ptb       ! minimum pt for the b 
 0.0 = pta       ! minimum pt for the photons
 25.0  = ptl       ! minimum pt for the charged leptons
 0.0  = misset    ! minimum missing Et (sum of neutrino's momenta)
 0.0  = ptheavy   ! minimum pt for one heavy final state
 -1.0  = ptjmax    ! maximum pt for the jets
 -1.0  = ptbmax    ! maximum pt for the b
 -1.0 = ptamax       ! maximum pt for the photons
 -1.0  = ptlmax    ! maximum pt for the charged leptons
 -1.0  = missetmax ! maximum missing Et (sum of neutrino's momenta)
#*********************************************************************
# Minimum and maximum E's (in the center of mass frame)              *
#*********************************************************************
  0.0  = ej     ! minimum E for the jets 
  0.0  = eb     ! minimum E for the b 
  0.0  = ea     ! minimum E for the photons 
  0.0  = el     ! minimum E for the charged leptons 
  -1.0   = ejmax ! maximum E for the jets
 -1.0   = ebmax ! maximum E for the b
 -1.0   = eamax ! maximum E for the photons
 -1.0   = elmax ! maximum E for the charged leptons
#*********************************************************************
# Maximum and minimum absolute rapidity (for max, -1 means no cut)   *
#*********************************************************************
 2.5 = etaj    ! max rap for the jets
  -1.0  = etab    ! max rap for the b
 3.0  = etaa    ! max rap for the photons
 2.5  = etal    ! max rap for the charged leptons
 0.0  = etajmin ! min rap for the jets
 0.0  = etabmin ! min rap for the b
 0.0  = etaamin ! min rap for the photons
 0.0  = etalmin ! main rap for the charged leptons
#*********************************************************************
# Minimum and maximum DeltaR distance                                *
#*********************************************************************
 0.0 = drjj    ! min distance between jets
 0.0 = drbb    ! min distance between b's
 0.0 = drll    ! min distance between leptons
 0.0 = draa    ! min distance between gammas
 0.0 = drbj    ! min distance between b and jet
 0.0 = draj    ! min distance between gamma and jet
 0.0 = drjl    ! min distance between jet and lepton
 0.0 = drab    ! min distance between gamma and b
 0.0 = drbl    ! min distance between b and lepton
 0.0 = dral    ! min distance between gamma and lepton
 -1.0  = drjjmax ! max distance between jets
 -1.0  = drbbmax ! max distance between b's
 -1.0  = drllmax ! max distance between leptons
 -1.0  = draamax ! max distance between gammas
 -1.0  = drbjmax ! max distance between b and jet
 -1.0  = drajmax ! max distance between gamma and jet
 -1.0  = drjlmax ! max distance between jet and lepton
 -1.0  = drabmax ! max distance between gamma and b
 -1.0  = drblmax ! max distance between b and lepton
 -1.0  = dralmax ! maxdistance between gamma and lepton
#*********************************************************************
# Minimum and maximum invariant mass for pairs                       *
# WARNING: for four lepton final state mmll cut require to have      *
#          different lepton masses for each flavor!                  *           
#*********************************************************************
 0.0   = mmjj    ! min invariant mass of a jet pair 
 0.0   = mmbb    ! min invariant mass of a b pair 
 0.0   = mmaa    ! min invariant mass of gamma gamma pair
 1070   = mmll    ! min invariant mass of l+l- (same flavour) lepton pair
 -1.0  = mmjjmax ! max invariant mass of a jet pair
 -1.0  = mmbbmax ! max invariant mass of a b pair
 -1.0  = mmaamax ! max invariant mass of gamma gamma pair
 1290  = mmllmax ! max invariant mass of l+l- (same flavour) lepton pair
#*********************************************************************
# Minimum and maximum invariant mass for all letpons                 *
#*********************************************************************
 0.0   = mmnl    ! min invariant mass for all letpons (l+- and vl) 
 -1.0  = mmnlmax ! max invariant mass for all letpons (l+- and vl) 
#*********************************************************************
# Minimum and maximum pt for 4-momenta sum of leptons                *
#*********************************************************************
 0.0   = ptllmin  ! Minimum pt for 4-momenta sum of leptons(l and vl)
 -1.0  = ptllmax  ! Maximum pt for 4-momenta sum of leptons(l and vl)
#*********************************************************************
# Inclusive cuts                                                     *
#*********************************************************************
 0.0  = xptj ! minimum pt for at least one jet  
 0.0  = xptb ! minimum pt for at least one b 
 0.0  = xpta ! minimum pt for at least one photon 
 0.0  = xptl ! minimum pt for at least one charged lepton 
#*********************************************************************
# Control the pt's of the jets sorted by pt                          *
#*********************************************************************
 0.0   = ptj1min ! minimum pt for the leading jet in pt
 0.0   = ptj2min ! minimum pt for the second jet in pt
 0.0   = ptj3min ! minimum pt for the third jet in pt
 0.0   = ptj4min ! minimum pt for the fourth jet in pt
 -1.0  = ptj1max ! maximum pt for the leading jet in pt 
 -1.0  = ptj2max ! maximum pt for the second jet in pt
 -1.0  = ptj3max ! maximum pt for the third jet in pt
 -1.0  = ptj4max ! maximum pt for the fourth jet in pt
 0   = cutuse  ! reject event if fails any (0) / all (1) jet pt cuts
#*********************************************************************
# Control the pt's of leptons sorted by pt                           *
#*********************************************************************
 0.0   = ptl1min ! minimum pt for the leading lepton in pt
 0.0   = ptl2min ! minimum pt for the second lepton in pt
 0.0   = ptl3min ! minimum pt for the third lepton in pt
 0.0   = ptl4min ! minimum pt for the fourth lepton in pt
 -1.0  = ptl1max ! maximum pt for the leading lepton in pt 
 -1.0  = ptl2max ! maximum pt for the second lepton in pt
 -1.0  = ptl3max ! maximum pt for the third lepton in pt
 -1.0  = ptl4max ! maximum pt for the fourth lepton in pt
#*********************************************************************
# Control the Ht(k)=Sum of k leading jets                            *
#*********************************************************************
 0.0   = htjmin ! minimum jet HT=Sum(jet pt)
 -1.0  = htjmax ! maximum jet HT=Sum(jet pt)
 0.0   = ihtmin  !inclusive Ht for all partons (including b)
 -1.0  = ihtmax  !inclusive Ht for all partons (including b)
 0.0   = ht2min ! minimum Ht for the two leading jets
 0.0   = ht3min ! minimum Ht for the three leading jets
 0.0   = ht4min ! minimum Ht for the four leading jets
 -1.0  = ht2max ! maximum Ht for the two leading jets
 -1.0  = ht3max ! maximum Ht for the three leading jets
 -1.0  = ht4max ! maximum Ht for the four leading jets
#***********************************************************************
# Photon-isolation cuts, according to hep-ph/9801442                   *
# When ptgmin=0, all the other parameters are ignored                  *
# When ptgmin>0, pta and draj are not going to be used                 *
#***********************************************************************
 0.0 = ptgmin ! Min photon transverse momentum
 0.4 = R0gamma ! Radius of isolation code
 1.0 = xn ! n parameter of eq.(3.4) in hep-ph/9801442
 1.0 = epsgamma ! epsilon_gamma parameter of eq.(3.4) in hep-ph/9801442
 True = isoEM ! isolate photons from EM energy (photons and leptons)
#*********************************************************************
# WBF cuts                                                           *
#*********************************************************************
 0.0   = xetamin ! minimum rapidity for two jets in the WBF case  
 0.0   = deltaeta ! minimum rapidity for two jets in the WBF case 
#*********************************************************************
# KT DURHAM CUT                                                      *
#*********************************************************************
 -1.0    =  ktdurham        
 0.4  =  dparameter 
#*********************************************************************
# maximal pdg code for quark to be considered as a light jet         *
# (otherwise b cuts are applied)                                     *
#*********************************************************************
 4 = maxjetflavor    ! Maximum jet pdg code
#*********************************************************************
# Jet measure cuts                                                   *
#*********************************************************************
 0.0   = xqcut   ! minimum kt jet measure between partons
#*********************************************************************
#
#*********************************************************************
# Store info for systematics studies                                 *
# WARNING: If use_syst is T, matched Pythia output is                *
#          meaningful ONLY if plotted taking matchscale              *
#          reweighting into account!                                 *
#*********************************************************************
#    False  = use_syst      ! Enable systematics studies # Commented out by MadMiner
#
#**************************************
# Parameter of the systematics study
#  will be used by SysCalc (if installed)
#**************************************                                  
#
0.5 1 2 = sys_scalefact  # factorization/renormalization scale factor
None = sys_alpsfact  # \alpha_s emission scale factors
30 50 = sys_matchscale # variation of merging scale
# PDF sets and number of members (0 or none for all members).
NNPDF23_lo_as_0130_qed = sys_pdf # matching scales
# MSTW2008nlo68cl.LHgrid 1  = sys_pdf


#*********************************************************************
# MadMiner systematics setup                                         *
#*********************************************************************
True = use_syst
systematics = systematics_program
['--pdf=90900'] = systematics_arguments
]]>
</MGRunCard>
<slha>
######################################################################
## PARAM_CARD AUTOMATICALY GENERATED BY MG5 FOLLOWING UFO MODEL   ####
######################################################################
##                                                                  ##
##  Width set on Auto will be computed following the information    ##
##        present in the decay.py files of the model.               ##
##        See  arXiv:1402.1178 for more details.                    ##
##                                                                  ##
######################################################################

###################################
## INFORMATION FOR CKMBLOCK
###################################
Block ckmblock 
    1 2.277360e-01 # cabi 

###################################
## INFORMATION FOR MASS
###################################
Block mass 
    5 4.700000e+00 # MB 
    6 1.720000e+02 # MT 
   15 1.777000e+00 # MTA 
   23 9.118760e+01 # MZ 
   25 1.250000e+02 # MH 
## Dependent parameters, given by model restrictions.
## Those values should be edited following the 
## analytical expression. MG5 ignores those values 
## but they are important for interfacing the output of MG5
## to external program such as Pythia.
  1 0.000000 # d : 0.0 
  2 0.000000 # u : 0.0 
  3 0.000000 # s : 0.0 
  4 0.000000 # c : 0.0 
  11 0.000000 # e- : 0.0 
  12 0.000000 # ve : 0.0 
  13 0.000000 # mu- : 0.0 
  14 0.000000 # vm : 0.0 
  16 0.000000 # vt : 0.0 
  21 0.000000 # g : 0.0 
  22 0.000000 # a : 0.0 
  24 79.824360 # w+ : cmath.sqrt(MZ__exp__2/2. + cmath.sqrt(MZ__exp__4/4. - (aEW*cmath.pi*MZ__exp__2)/(Gf*sqrt__2))) 

###################################
## INFORMATION FOR OBLIQUE
###################################
Block oblique 
    1    0.0    # MadMiner
    2    0.0    # MadMiner

###################################
## INFORMATION FOR SMINPUTS
###################################
Block sminputs 
    1 1.279000e+02 # aEWM1 
    2 1.166370e-05 # Gf 
    3 1.184000e-01 # aS 

###################################
## INFORMATION FOR YUKAWA
###################################
Block yukawa 
    5 4.700000e+00 # ymb 
    6 1.720000e+02 # ymt 
   15 1.777000e+00 # ymtau 

###################################
## INFORMATION FOR DECAY
###################################
DECAY   6 1.508336e+00 # WT 
DECAY  23 2.495200e+00 # WZ 
DECAY  24 2.085000e+00 # WW 
DECAY  25 4.070000e-03 # WH 
## Dependent parameters, given by model restrictions.
## Those values should be edited following the 
## analytical expression. MG5 ignores those values 
## but they are important for interfacing the output of MG5
## to external program such as Pythia.
DECAY  1 0.000000 # d : 0.0 
DECAY  2 0.000000 # u : 0.0 
DECAY  3 0.000000 # s : 0.0 
DECAY  4 0.000000 # c : 0.0 
DECAY  5 0.000000 # b : 0.0 
DECAY  11 0.000000 # e- : 0.0 
DECAY  12 0.000000 # ve : 0.0 
DECAY  13 0.000000 # mu- : 0.0 
DECAY  14 0.000000 # vm : 0.0 
DECAY  15 0.000000 # ta- : 0.0 
DECAY  16 0.000000 # vt : 0.0 
DECAY  21 0.000000 # g : 0.0 
DECAY  22 0.000000 # a : 0.0
</slha>
<initrwgt>
<weightgroup name='mg_reweighting' weight_name_strategy='includeIdInWeightName'>
<weight id='morphing_basis_vector_1'>set param_card oblique 1 -0.06391685 # orig: 0.0
set param_card oblique 2 -0.08653588 # orig: 0.0
</weight>
<weight id='morphing_basis_vector_2'>set param_card oblique 1 0.0342439 # orig: 0.0
set param_card oblique 2 -0.09831893 # orig: 0.0
</weight>
<weight id='morphing_basis_vector_3'>set param_card oblique 1 -0.08145691 # orig: 0.0
set param_card oblique 2 0.09700122 # orig: 0.0
</weight>
<weight id='morphing_basis_vector_4'>set param_card oblique 1 0.09132942 # orig: 0.0
set param_card oblique 2 -0.005442744 # orig: 0.0
</weight>
<weight id='morphing_basis_vector_5'>set param_card oblique 1 0.08535809 # orig: 0.0
set param_card oblique 2 0.08156918 # orig: 0.0
</weight>
</weightgroup>
</initrwgt>
<MGGenerationInfo>
#  Number of Events        :       1000
#  Integrated weight (pb)  :       0.00078865
</MGGenerationInfo>
</header>
<init>
2212 2212 6.500000e+03 6.500000e+03 0 0 90900 90900 -3 1
7.886500e-04 4.619034e-06 7.886500e-07 1
<generator name='MadGraph5_aMC@NLO' version='2.6.4'>please cite 1405.0301 </generator>
</init>
<event>
 4      1 +7.8865000e-07 1.07623900e+03 7.81860800e-03 8.61502400e-02
        2 -1    0    0  501    0 +0.0000000000e+00 +0.0000000000e+00 +8.1473605126e+02 8.1473605126e+02 0.0000000000e+00 0.0000e+00 -1.0000e+00
       -2 -1    0    0    0  501 -0.0000000000e+00 -0.0000000000e+00 -3.5541895882e+02 3.5541895882e+02 0.0000000000e+00 0.0000e+00 1.0000e+00
      -13  1    1    2    0    0 +3.2416234088e+02 -4.2076761005e+02 +1.3583817429e+02 5.4825050342e+02 0.0000000000e+00 0.0000e+00 1.0000e+00
       13  1    1    2    0    0 -3.2416234088e+02 +4.2076761005e+02 +3.2347891815e+02 6.2190450666e+02 0.0000000000e+00 0.0000e+00 -1.0000e+00
<mgrwt>
<rscale>  0 0.10762391E+04</rscale>
<asrwt>0</asrwt>
<pdfrwt beam="1">  1        2 0.12534401E+00 0.10762391E+04</pdfrwt>
<pdfrwt beam="2">  1       -2 0.54679840E-01 0.10762391E+04</pdfrwt>
<totfact> 0.13037807E+02</totfact>
</mgrwt>
<rwgt>
<wgt id='morphing_basis_vector_1'> +1.6652861e-04 </wgt>
<wgt id='morphing_basis_vector_2'> +1.1285843e-04 </wgt>
<wgt id='morphing_basis_vector_3'> +1.6323588e-04 </wgt>
<wgt id='morphing_basis_vector_4'> +9.5062575e-05 </wgt>
<wgt id='morphing_basis_vector_5'> +1.5859250e-04 </wgt>
</rwgt>
</event>
<event>
 4      1 +7.8865000e-07 1.23777200e+03 7.81860800e-03 8.48590300e-02
        2 -1    0    0  501    0 +0.0000000000e+00 +0.0000000000e+00 +5.3628891353e+02 5.3628891353e+02 0.0000000000e+00 0.0000e+00 -1.0000e+00
       -2 -1    0    0    0  501 -0.0000000000e+00 -0.0000000000e+00 -7.1420386204e+02 7.1420386204e+02 0.0000000000e+00 0.0000e+00 1.0000e+00
      -13  1    1    2    0    0 +1.6168091590e+02 -5.6346438363e+02 -2.8945819588e+02 6.5377280254e+02 0.0000000000e+00 0.0000e+00 1.0000e+00
       13  1    1    2    0    0 -1.6168091590e+02 +5.6346438363e+02 +1.1154324737e+02 5.9671997303e+02 0.0000000000e+00 0.0000e+00 -1.0000e+00
<mgrwt>
<rscale>  0 0.12377716E+04</rscale>
<asrwt>0</asrwt>
<pdfrwt beam="1">  1        2 0.82505987E-01 0.12377716E+04</pdfrwt>
<pdfrwt beam="2">  1       -2 0.10987752E+00 0.12377716E+04</pdfrwt>
<totfact> 0.45088118E+01</totfact>
</mgrwt>
<rwgt>
<wgt id='morphing_basis_vector_1'> +2.7937262e-04 </wgt>
<wgt id='morphing_basis_vector_2'> +1.8614558e-04 </wgt>
<wgt id='morphing_basis_vector_3'> +2.8195613e-04 </wgt>
<wgt id='morphing_basis_vector_4'> +1.7641841e-04 </wgt>
<wgt id='morphing_basis_vector_5'> +2.8772955e-04 </wgt>
</rwgt>
</event>
<event>
 4      1 +7.8865000e-07 1.25875800e+03 7.81860800e-03 8.47065400e-02
        2 -1    0    0  501    0 +0.0000000000e+00 +0.0000000000e+00 +1.4727160752e+03 1.4727160752e+03 0.0000000000e+00 0.0000e+00 1.0000e+00
       -2 -1    0    0    0  501 -0.0000000000e+00 -0.0000000000e+00 -2.6897113932e+02 2.6897113932e+02 0.0000000000e+00 0.0000e+00 -1.0000e+00
      -13  1    1    2    0    0 -4.1920301324e+02 +2.3356910704e+02 +3.8413181452e+01 4.8141589772e+02 0.0000000000e+00 0.0000e+00 -1.0000e+00
       13  1    1    2    0    0 +4.1920301324e+02 -2.3356910704e+02 +1.1653317544e+03 1.2602713168e+03 0.0000000000e+00 0.0000e+00 1.0000e+00
<mgrwt>
<rscale>  0 0.12587583E+04</rscale>
<asrwt>0</asrwt>
<pdfrwt beam="1">  1        2 0.22657170E+00 0.12587583E+04</pdfrwt>
<pdfrwt beam="2">  1       -2 0.41380176E-01 0.12587583E+04</pdfrwt>
<totfact> 0.88646466E+01</totfact>
</mgrwt>
<rwgt>
<wgt id='morphing_basis_vector_1'> +2.9530226e-04 </wgt>
<wgt id='morphing_basis_vector_2'> +1.9126998e-04 </wgt>
<wgt id='morphing_basis_vector_3'> +2.9854788e-04 </wgt>
<wgt id='morphing_basis_vector_4'> +1.9370678e-04 </wgt>
<wgt id='morphing_basis_vector_5'> +3.0915481e-04 </wgt>
</rwgt>
</event>
<event>
 4      1 +7.8865000e-07 1.24548800e+03 7.81860800e-03 8.48025900e-02
        2 -1    0    0  501    0 +0.0000000000e+00 +0.0000000000e+00 +7.6722040605e+02 7.6722040605e+02 0.0000000000e+00 0.0000e+00 -1.0000e+00
       -2 -1    0    0    0  501 -0.0000000000e+00 -0.0000000000e+00 -5.0547436122e+02 5.0547436122e+02 0.0000000000e+00 0.0000e+00 1.0000e+00
      -13  1    1    2    0    0 -3.6159917298e+02 -2.0256283223e+02 -3.4406420278e+02 5.3867043592e+02 0.0000000000e+00 0.0000e+00 1.0000e+00
       13  1    1    2    0    0 +3.6159917298e+02 +2.0256283223e+02 +6.0581024761e+02 7.3402433134e+02 0.0000000000e+00 0.0000e+00 -1.0000e+00
<mgrwt>
<rscale>  0 0.12454882E+04</rscale>
<asrwt>0</asrwt>
<pdfrwt beam="1">  1        2 0.11803391E+00 0.12454882E+04</pdfrwt>
<pdfrwt beam="2">  1       -2 0.77765286E-01 0.12454882E+04</pdfrwt>
<totfact> 0.66288477E+01</totfact>
</mgrwt>
<rwgt>
<wgt id='morphing_basis_vector_1'> +2.8336582e-04 </wgt>
<wgt id='morphing_basis_vector_2'> +1.8267741e-04 </wgt>
<wgt id='morphing_basis_vector_3'> +2.8589938e-04 </wgt>
<wgt id='morphing_basis_vector_4'> +1.8576018e-04 </wgt>
<wgt id='morphing_basis_vector_5'> +2.9569058e-04 </wgt>
</rwgt>
</event>
<event>
 4      1 +7.8865000e-07 1.10723600e+03 7.81860800e-03 8.58848600e-02
        2 -1    0    0  501    0 +0.0000000000e+00 +0.0000000000e+00 +1.4342385116e+03 1.4342385116e+03 0.0000000000e+00 0.0000e+00 1.0000e+00
       -2 -1    0    0    0  501 -0.0000000000e+00 -0.0000000000e+00 -2.1369736322e+02 2.1369736322e+02 0.0000000000e+00 0.0000e+00 -1.0000e+00
      -13  1    1    2    0    0 +3.1609809580e+02 +4.2301197452e+02 +8.5769152150e+02 1.0072198781e+03 0.0000000000e+00 0.0000e+00 -1.0000e+00
       13  1    1    2    0    0 -3.1609809580e+02 -4.2301197452e+02 +3.6284962688e+02 6.4071599674e+02 0.0000000000e+00 0.0000e+00 1.0000e+00
<mgrwt>
<rscale>  0 0.11072362E+04</rscale>
<asrwt>0</asrwt>
<pdfrwt beam="1">  1        2 0.22065207E+00 0.11072362E+04</pdfrwt>
<pdfrwt beam="2">  1       -2 0.32876518E-01 0.11072362E+04</pdfrwt>
<totfact> 0.14377967E+02</totfact>
</mgrwt>
<rwgt>
<wgt id='morphing_basis_vector_1'> +1.9979217e-04 </wgt>
<wgt id='morphing_basis_vector_2'> +1.6992360e-04 </wgt>
<wgt id='morphing_basis_vector_3'> +1.9809487e-04 </wgt>
<wgt id='morphing_basis_vector_4'> +8.3257972e-05 </wgt>
<wgt id='morphing_basis_vector_5'> +1.7754673e-04 </wgt>
</rwgt>
</event>
<event>
 4      1 +7.8865000e-07 1.23586300e+03 7.81860800e-03 8.48730600e-02
        2 -1    0    0  501    0 +0.0000000000e+00 +0.0000000000e+00 +9.9744258917e+02 9.9744258917e+02 0.0000000000e+00 0.0000e+00 1.0000e+00
       -2 -1    0    0    0  501 -0.0000000000e+00 -0.0000000000e+00 -3.8281829078e+02 3.8281829078e+02 0.0000000000e+00 0.0000e+00 -1.0000e+00
      -13  1    1    2    0    0 -7.2485252765e+01 -2.6040066385e+02 -3.1328977076e+02 4.1377904498e+02 0.0000000000e+00 0.0000e+00 -1.0000e+00
       13  1    1    2    0    0 +7.2485252765e+01 +2.6040066385e+02 +9.2791406915e+02 9.6648183497e+02 0.0000000000e+00 0.0000e+00 1.0000e+00
<mgrwt>
<rscale>  0 0.12358629E+04</rscale>
<asrwt>0</asrwt>
<pdfrwt beam="1">  1        2 0.15345270E+00 0.12358629E+04</pdfrwt>
<pdfrwt beam="2">  1       -2 0.58895122E-01 0.12358629E+04</pdfrwt>
<totfact> 0.84243889E+01</totfact>
</mgrwt>
<rwgt>
<wgt id='morphing_basis_vector_1'> +2.7494032e-04 </wgt>
<wgt id='morphing_basis_vector_2'> +1.7662604e-04 </wgt>
<wgt id='morphing_basis_vector_3'> +2.7698268e-04 </wgt>
<wgt id='morphing_basis_vector_4'> +1.8014754e-04 </wgt>
<wgt id='morphing_basis_vector_5'> +2.8619833e-04 </wgt>
</rwgt>
</event>
<event>
 4      1 +7.8865000e-07 1.17661400e+03 7.81860800e-03 8.53221900e-02
        2 -1    0    0  501    0 +0.0000000000e+00 +0.0000000000e+00 +9.4760151507e+02 9.4760151507e+02 0.0000000000e+00 0.0000e+00 -1.0000e+00
       -2 -1    0    0    0  501 -0.0000000000e+00 -0.0000000000e+00 -3.6524313623e+02 3.6524313623e+02 0.0000000000e+00 0.0000e+00 1.0000e+00
      -13  1    1    2    0    0 +3.6566691476e+02 -4.5648073183e+02 +2.2045234104e+02 6.2504894669e+02 0.0000000000e+00 0.0000e+00 -1.0000e+00
       13  1    1    2    0    0 -3.6566691476e+02 +4.5648073183e+02 +3.6190603781e+02 6.8779570462e+02 0.0000000000e+00 0.0000e+00 1.0000e+00
<mgrwt>
<rscale>  0 0.11766137E+04</rscale>
<asrwt>0</asrwt>
<pdfrwt beam="1">  1        2 0.14578485E+00 0.11766137E+04</pdfrwt>
<pdfrwt beam="2">  1       -2 0.56191252E-01 0.11766137E+04</pdfrwt>
<totfact> 0.10007523E+02</totfact>
</mgrwt>
<rwgt>
<wgt id='morphing_basis_vector_1'> +2.3378698e-04 </wgt>
<wgt id='morphing_basis_vector_2'> +1.6239212e-04 </wgt>
<wgt id='morphing_basis_vector_3'> +2.3398799e-04 </wgt>
<wgt id='morphing_basis_vector_4'> +1.3708546e-04 </wgt>
<wgt id='morphing_basis_vector_5'> +2.3186700e-04 </wgt>
</rwgt>
</event>
<event>
 4      1 +7.8865000e-07 1.19815100e+03 7.81860800e-03 8.51557700e-02
        2 -1    0    0  501    0 +0.0000000000e+00 +0.0000000000e+00 +1.1636286791e+03 1.1636286791e+03 0.0000000000e+00 0.0000e+00 -1.0000e+00
       -2 -1    0    0    0  501 -0.0000000000e+00 -0.0000000000e+00 -3.0842439396e+02 3.0842439396e+02 0.0000000000e+00 0.0000e+00 1.0000e+00
      -13  1    1    2    0    0 +5.8074034522e+02 +1.4706468709e+02 +4.2511459590e+02 7.3458137085e+02 0.0000000000e+00 0.0000e+00 1.0000e+00
       13  1    1    2    0    0 -5.8074034522e+02 -1.4706468709e+02 +4.3008968920e+02 7.3747170218e+02 0.0000000000e+00 0.0000e+00 -1.0000e+00
<mgrwt>
<rscale>  0 0.11981510E+04</rscale>
<asrwt>0</asrwt>
<pdfrwt beam="1">  1        2 0.17901980E+00 0.11981510E+04</pdfrwt>
<pdfrwt beam="2">  1       -2 0.47449907E-01 0.11981510E+04</pdfrwt>
<totfact> 0.10300601E+02</totfact>
</mgrwt>
<rwgt>
<wgt id='morphing_basis_vector_1'> +2.5316486e-04 </wgt>
<wgt id='morphing_basis_vector_2'> +1.8261016e-04 </wgt>
<wgt id='morphing_basis_vector_3'> +2.5470295e-04 </wgt>
<wgt id='morphing_basis_vector_4'> +1.4320971e-04 </wgt>
<wgt id='morphing_basis_vector_5'> +2.5006139e-04 </wgt>
</rwgt>
</event>
<event>
 4      1 +7.8865000e-07 1.23509000e+03 7.81860800e-03 8.48787400e-02
        2 -1    0    0  501    0 +0.0000000000e+00 +0.0000000000e+00 +1.5193604819e+03 1.5193604819e+03 0.0000000000e+00 0.0000e+00 1.0000e+00
       -2 -1    0    0    0  501 -0.0000000000e+00 -0.0000000000e+00 -2.5100170545e+02 2.5100170545e+02 0.0000000000e+00 0.0000e+00 -1.0000e+00
      -13  1    1    2    0    0 +2.3058528219e+02 +3.8944309587e+02 +3.1941010692e+01 4.5371326347e+02 0.0000000000e+00 0.0000e+00 -1.0000e+00
       13  1    1    2    0    0 -2.3058528219e+02 -3.8944309587e+02 +1.2364177657e+03 1.3166489239e+03 0.0000000000e+00 0.0000e+00 1.0000e+00
<mgrwt>
<rscale>  0 0.12350904E+04</rscale>
<asrwt>0</asrwt>
<pdfrwt beam="1">  1        2 0.23374776E+00 0.12350904E+04</pdfrwt>
<pdfrwt beam="2">  1       -2 0.38615648E-01 0.12350904E+04</pdfrwt>
<totfact> 0.95161787E+01</totfact>
</mgrwt>
<rwgt>
<wgt id='morphing_basis_vector_1'> +2.7465371e-04 </wgt>
<wgt id='morphing_basis_vector_2'> +1.7729073e-04 </wgt>
<wgt id='morphing_basis_vector_3'> +2.7671794e-04 </wgt>
<wgt id='morphing_basis_vector_4'> +1.7903985e-04 </wgt>
<wgt id='morphing_basis_vector_5'> +2.8540076e-04 </wgt>
</rwgt>
</event>
<event>
 4      1 +7.8865000e-07 1.10279200e+03 7.81860800e-03 8.59223600e-02
        2 -1    0    0  501    0 +0.0000000000e+00 +0.0000000000e+00 +5.6904181602e+02 5.6904181602e+02 0.0000000000e+00 0.0000e+00 -1.0000e+00
       -2 -1    0    0    0  501 -0.0000000000e+00 -0.0000000000e+00 -5.3429707842e+02 5.3429707842e+02 0.0000000000e+00 0.0000e+00 1.0000e+00
      -13  1    1    2    0    0 -5.0330570030e+02 -2.2282475477e+01 -2.0684649225e+02 5.4460867420e+02 0.0000000000e+00 0.0000e+00 1.0000e+00
       13  1    1    2    0    0 +5.0330570030e+02 +2.2282475477e+01 +2.4159122985e+02 5.5873022024e+02 0.0000000000e+00 0.0000e+00 -1.0000e+00
<mgrwt>
<rscale>  0 0.11027917E+04</rscale>
<asrwt>0</asrwt>
<pdfrwt beam="1">  1        2 0.87544895E-01 0.11027917E+04</pdfrwt>
<pdfrwt beam="2">  1       -2 0.82199551E-01 0.11027917E+04</pdfrwt>
<totfact> 0.84834494E+01</totfact>
</mgrwt>
<rwgt>
<wgt id='morphing_basis_vector_1'> +1.8014003e-04 </wgt>
<wgt id='morphing_basis_vector_2'> +1.1710005e-04 </wgt>
<wgt id='morphing_basis_vector_3'> +1.7748357e-04 </wgt>
<wgt id='morphing_basis_vector_4'> +1.0922028e-04 </wgt>
<wgt id='morphing_basis_vector_5'> +1.7628782e-04 </wgt>
</rwgt>
</event>
<event>
 4      1 +7.8865000e-07 1.21601300e+03 7.81860800e-03 8.50205200e-02
        2 -1    0    0  501    0 +0.0000000000e+00 +0.0000000000e+00 +2.3645744202e+03 2.3645744202e+03 0.0000000000e+00 0.0000e+00 -1.0000e+00
       -2 -1    0    0    0  501 -0.0000000000e+00 -0.0000000000e+00 -1.5633755153e+02 1.5633755153e+02 0.0000000000e+00 0.0000e+00 1.0000e+00
      -13  1    1    2    0    0 +4.9198096188e+02 -2.4344361242e+02 +5.6208507446e+02 7.8565239783e+02 0.0000000000e+00 0.0000e+00 1.0000e+00
       13  1    1    2    0    0 -4.9198096188e+02 +2.4344361242e+02 +1.6461517942e+03 1.7352595739e+03 0.0000000000e+00 0.0000e+00 -1.0000e+00
<mgrwt>
<rscale>  0 0.12160128E+04</rscale>
<asrwt>0</asrwt>
<pdfrwt beam="1">  1        2 0.36378066E+00 0.12160128E+04</pdfrwt>
<pdfrwt beam="2">  1       -2 0.24051933E-01 0.12160128E+04</pdfrwt>
<totfact> 0.74214792E+01</totfact>
</mgrwt>
<rwgt>
<wgt id='morphing_basis_vector_1'> +2.6015394e-04 </wgt>
<wgt id='morphing_basis_vector_2'> +1.7057846e-04 </wgt>
<wgt id='morphing_basis_vector_3'> +2.6153449e-04 </wgt>
<wgt id='morphing_basis_vector_4'> +1.6553774e-04 </wgt>
<wgt id='morphing_basis_vector_5'> +2.6709917e-04 </wgt>
</rwgt>
</event>
<event>
 4      1 +7.8865000e-07 1.24868200e+03 7.81860800e-03 8.47793600e-02
        2 -1    0    0  501    0 +0.0000000000e+00 +0.0000000000e+00 +2.3936491477e+03 2.3936491477e+03 0.0000000000e+00 0.0000e+00 -1.0000e+00
       -2 -1    0    0    0  501 -0.0000000000e+00 -0.0000000000e+00 -1.6284819279e+02 1.6284819279e+02 0.0000000000e+00 0.0000e+00 1.0000e+00
      -13  1    1    2    0    0 +6.1175391413e+02 +1.5275418949e+01 +8.6194750628e+02 1.0570854712e+03 0.0000000000e+00 0.0000e+00 1.0000e+00
       13  1    1    2    0    0 -6.1175391413e+02 -1.5275418949e+01 +1.3688534487e+03 1.4994118693e+03 0.0000000000e+00 0.0000e+00 -1.0000e+00
<mgrwt>
<rscale>  0 0.12486816E+04</rscale>
<asrwt>0</asrwt>
<pdfrwt beam="1">  1        2 0.36825369E+00 0.12486816E+04</pdfrwt>
<pdfrwt beam="2">  1       -2 0.25053570E-01 0.12486816E+04</pdfrwt>
<totfact> 0.66360232E+01</totfact>
</mgrwt>
<rwgt>
<wgt id='morphing_basis_vector_1'> +2.9078386e-04 </wgt>
<wgt id='morphing_basis_vector_2'> +1.9845465e-04 </wgt>
<wgt id='morphing_basis_vector_3'> +2.9425587e-04 </wgt>
<wgt id='morphing_basis_vector_4'> +1.7965031e-04 </wgt>
<wgt id='morphing_basis_vector_5'> +2.9833680e-04 </wgt>
</rwgt>
</event>
<event>
 4      1 +7.8865000e-07 1.15123700e+03 7.81860800e-03 8.55231600e-02
        2 -1    0    0  501    0 +0.0000000000e+00 +0.0000000000e+00 +5.3247895009e+02 5.3247895009e+02 0.0000000000e+00 0.0000e+00 -1.0000e+00
       -2 -1    0    0    0  501 -0.0000000000e+00 -0.0000000000e+00 -6.2225268732e+02 6.2225268732e+02 0.0000000000e+00 0.0000e+00 1.0000e+00
      -13  1    1    2    0    0 -4.6871252418e+01 -1.0100661967e+02 -6.1134660965e+02 6.2140480257e+02 0.0000000000e+00 0.0000e+00 1.0000e+00
       13  1    1    2    0    0 +4.6871252418e+01 +1.0100661967e+02 +5.2157287242e+02 5.3332683484e+02 0.0000000000e+00 0.0000e+00 -1.0000e+00
<mgrwt>
<rscale>  0 0.11512367E+04</rscale>
<asrwt>0</asrwt>
<pdfrwt beam="1">  1        2 0.81919839E-01 0.11512367E+04</pdfrwt>
<pdfrwt beam="2">  1       -2 0.95731182E-01 0.11512367E+04</pdfrwt>
<totfact> 0.64048494E+01</totfact>
</mgrwt>
<rwgt>
<wgt id='morphing_basis_vector_1'> +2.1024504e-04 </wgt>
<wgt id='morphing_basis_vector_2'> +1.3392407e-04 </wgt>
<wgt id='morphing_basis_vector_3'> +2.0894575e-04 </wgt>
<wgt id='morphing_basis_vector_4'> +1.3356500e-04 </wgt>
<wgt id='morphing_basis_vector_5'> +2.1193016e-04 </wgt>
</rwgt>
</event>
<event>
 4      1 +7.8865000e-07 1.20193900e+03 7.81860800e-03 8.51268800e-02
        2 -1    0    0  501    0 +0.0000000000e+00 +0.0000000000e+00 +2.3630795879e+03 2.3630795879e+03 0.0000000000e+00 0.0000e+00 1.0000e+00
       -2 -1    0    0    0  501 -0.0000000000e+00 -0.0000000000e+00 -1.5283639892e+02 1.5283639892e+02 0.0000000000e+00 0.0000e+00 -1.0000e+00
      -13  1    1    2    0    0 +1.8149625244e+02 -5.2989900480e+02 +1.5609941728e+03 1.6584440456e+03 0.0000000000e+00 0.0000e+00 -1.0000e+00
       13  1    1    2    0    0 -1.8149625244e+02 +5.2989900480e+02 +6.4924901624e+02 8.5747194125e+02 0.0000000000e+00 0.0000e+00 1.0000e+00
<mgrwt>
<rscale>  0 0.12019394E+04</rscale>
<asrwt>0</asrwt>
<pdfrwt beam="1">  1        2 0.36355068E+00 0.12019394E+04</pdfrwt>
<pdfrwt beam="2">  1       -2 0.23513294E-01 0.12019394E+04</pdfrwt>
<totfact> 0.77392543E+01</totfact>
</mgrwt>
<rwgt>
<wgt id='morphing_basis_vector_1'> +2.7758548e-04 </wgt>
<wgt id='morphing_basis_vector_2'> +2.4907349e-04 </wgt>
<wgt id='morphing_basis_vector_3'> +2.8216196e-04 </wgt>
<wgt id='morphing_basis_vector_4'> +1.0842100e-04 </wgt>
<wgt id='morphing_basis_vector_5'> +2.5093138e-04 </wgt>
</rwgt>
</event>
<event>
 4      1 +7.8865000e-07 1.07692900e+03 7.81860800e-03 8.61442400e-02
        2 -1    0    0  501    0 +0.0000000000e+00 +0.0000000000e+00 +1.6634860361e+03 1.6634860361e+03 0.0000000000e+00 0.0000e+00 -1.0000e+00
       -2 -1    0    0    0  501 -0.0000000000e+00 -0.0000000000e+00 -1.7429896583e+02 1.7429896583e+02 0.0000000000e+00 0.0000e+00 1.0000e+00
      -13  1    1    2    0    0 +4.9866104350e+02 -4.6954125232e+01 +4.0725587626e+02 6.4554231072e+02 0.0000000000e+00 0.0000e+00 1.0000e+00
       13  1    1    2    0    0 -4.9866104350e+02 +4.6954125232e+01 +1.0819311940e+03 1.1922426912e+03 0.0000000000e+00 0.0000e+00 -1.0000e+00
<mgrwt>
<rscale>  0 0.10769288E+04</rscale>
<asrwt>0</asrwt>
<pdfrwt beam="1">  1        2 0.25592092E+00 0.10769288E+04</pdfrwt>
<pdfrwt beam="2">  1       -2 0.26815227E-01 0.10769288E+04</pdfrwt>
<totfact> 0.15403615E+02</totfact>
</mgrwt>
<rwgt>
<wgt id='morphing_basis_vector_1'> +1.6506445e-04 </wgt>
<wgt id='morphing_basis_vector_2'> +1.0751529e-04 </wgt>
<wgt id='morphing_basis_vector_3'> +1.6175491e-04 </wgt>
<wgt id='morphing_basis_vector_4'> +9.8341308e-05 </wgt>
<wgt id='morphing_basis_vector_5'> +1.5922033e-04 </wgt>
</rwgt>
</event>
<event>
 4      1 +7.8865000e-07 1.10446800e+03 7.81860800e-03 8.59081900e-02
        2 -1    0    0  501    0 +0.0000000000e+00 +0.0000000000e+00 +1.2931588839e+03 1.2931588839e+03 0.0000000000e+00 0.0000e+00 -1.0000e+00
       -2 -1    0    0    0  501 -0.0000000000e+00 -0.0000000000e+00 -2.3582756542e+02 2.3582756542e+02 0.0000000000e+00 0.0000e+00 1.0000e+00
      -13  1    1    2    0    0 +2.1431640832e+02 +3.9780592918e+02 +8.9184082705e+01 4.6058102520e+02 0.0000000000e+00 0.0000e+00 1.0000e+00
       13  1    1    2    0    0 -2.1431640832e+02 -3.9780592918e+02 +9.6814723579e+02 1.0684054241e+03 0.0000000000e+00 0.0000e+00 -1.0000e+00
<mgrwt>
<rscale>  0 0.11044682E+04</rscale>
<asrwt>0</asrwt>
<pdfrwt beam="1">  1        2 0.19894752E+00 0.11044682E+04</pdfrwt>
<pdfrwt beam="2">  1       -2 0.36281165E-01 0.11044682E+04</pdfrwt>
<totfact> 0.14455719E+02</totfact>
</mgrwt>
<rwgt>
<wgt id='morphing_basis_vector_1'> +1.8043397e-04 </wgt>
<wgt id='morphing_basis_vector_2'> +1.1557732e-04 </wgt>
<wgt id='morphing_basis_vector_3'> +1.7778900e-04 </wgt>
<wgt id='morphing_basis_vector_4'> +1.1113607e-04 </wgt>
<wgt id='morphing_basis_vector_5'> +1.7751482e-04 </wgt>
</rwgt>
</event>
<event>
 4      1 +7.8865000e-07 1.22126000e+03 7.81860800e-03 8.49812600e-02
        2 -1    0    0  501    0 +0.0000000000e+00 +0.0000000000e+00 +1.5705720162e+03 1.5705720162e+03 0.0000000000e+00 0.0000e+00 -1.0000e+00
       -2 -1    0    0    0  501 -0.0000000000e+00 -0.0000000000e+00 -2.3740963373e+02 2.3740963373e+02 0.0000000000e+00 0.0000e+00 1.0000e+00
      -13  1    1    2    0    0 -2.7309663020e+02 +3.1572096526e+02 +6.8247003048e+00 4.1750218426e+02 0.0000000000e+00 0.0000e+00 1.0000e+00
       13  1    1    2    0    0 +2.7309663020e+02 -3.1572096526e+02 +1.3263376822e+03 1.3904794657e+03 0.0000000000e+00 0.0000e+00 -1.0000e+00
<mgrwt>
<rscale>  0 0.12212599E+04</rscale>
<asrwt>0</asrwt>
<pdfrwt beam="1">  1        2 0.24162646E+00 0.12212599E+04</pdfrwt>
<pdfrwt beam="2">  1       -2 0.36524560E-01 0.12212599E+04</pdfrwt>
<totfact> 0.98854184E+01</totfact>
</mgrwt>
<rwgt>
<wgt id='morphing_basis_vector_1'> +2.6304709e-04 </wgt>
<wgt id='morphing_basis_vector_2'> +1.6930161e-04 </wgt>
<wgt id='morphing_basis_vector_3'> +2.6446124e-04 </wgt>
<wgt id='morphing_basis_vector_4'> +1.7096530e-04 </wgt>
<wgt id='morphing_basis_vector_5'> +2.7216620e-04 </wgt>
</rwgt>
</event>
<event>
 4      1 +7.8865000e-07 1.10739200e+03 7.81860800e-03 8.58835400e-02
        2 -1    0    0  501    0 +0.0000000000e+00 +0.0000000000e+00 +2.3109523597e+03 2.3109523597e+03 0.0000000000e+00 0.0000e+00 1.0000e+00
       -2 -1    0    0    0  501 -0.0000000000e+00 -0.0000000000e+00 -1.3266364279e+02 1.3266364279e+02 0.0000000000e+00 0.0000e+00 -1.0000e+00
      -13  1    1    2    0    0 -9.3816593876e+01 -5.3986165169e+02 +9.1362001281e+02 1.0653420503e+03 0.0000000000e+00 0.0000e+00 -1.0000e+00
       13  1    1    2    0    0 +9.3816593876e+01 +5.3986165169e+02 +1.2646687041e+03 1.3782739523e+03 0.0000000000e+00 0.0000e+00 1.0000e+00
<mgrwt>
<rscale>  0 0.11073922E+04</rscale>
<asrwt>0</asrwt>
<pdfrwt beam="1">  1        2 0.35553110E+00 0.11073922E+04</pdfrwt>
<pdfrwt beam="2">  1       -2 0.20409793E-01 0.11073922E+04</pdfrwt>
<totfact> 0.10624704E+02</totfact>
</mgrwt>
<rwgt>
<wgt id='morphing_basis_vector_1'> +1.8553373e-04 </wgt>
<wgt id='morphing_basis_vector_2'> +1.2672263e-04 </wgt>
<wgt id='morphing_basis_vector_3'> +1.8313104e-04 </wgt>
<wgt id='morphing_basis_vector_4'> +1.0695600e-04 </wgt>
<wgt id='morphing_basis_vector_5'> +1.7918172e-04 </wgt>
</rwgt>
</event>
<event>
 4      1 +7.8865000e-07 1.17913500e+03 7.81860800e-03 8.53025200e-02
        2 -1    0    0  501    0 +0.0000000000e+00 +0.0000000000e+00 +1.9534655087e+03 1.9534655087e+03 0.0000000000e+00 0.0000e+00 -1.0000e+00
       -2 -1    0    0    0  501 -0.0000000000e+00 -0.0000000000e+00 -1.7793494596e+02 1.7793494596e+02 0.0000000000e+00 0.0000e+00 1.0000e+00
      -13  1    1    2    0    0 -2.4290370446e+02 -4.6497479683e+02 +4.0143773015e+02 6.6057249603e+02 0.0000000000e+00 0.0000e+00 1.0000e+00
       13  1    1    2    0    0 +2.4290370446e+02 +4.6497479683e+02 +1.3740928326e+03 1.4708279587e+03 0.0000000000e+00 0.0000e+00 -1.0000e+00
<mgrwt>
<rscale>  0 0.11791349E+04</rscale>
<asrwt>0</asrwt>
<pdfrwt beam="1">  1        2 0.30053314E+00 0.11791349E+04</pdfrwt>
<pdfrwt beam="2">  1       -2 0.27374608E-01 0.11791349E+04</pdfrwt>
<totfact> 0.10181939E+02</totfact>
</mgrwt>
<rwgt>
<wgt id='morphing_basis_vector_1'> +2.3137312e-04 </wgt>
<wgt id='morphing_basis_vector_2'> +1.5078635e-04 </wgt>
<wgt id='morphing_basis_vector_3'> +2.3118992e-04 </wgt>
<wgt id='morphing_basis_vector_4'> +1.4566484e-04 </wgt>
<wgt id='morphing_basis_vector_5'> +2.3447361e-04 </wgt>
</rwgt>
</event>
<event>
 4      1 +7.8865000e-07 1.18722900e+03 7.81860800e-03 8.52397000e-02
        2 -1    0    0  501    0 +0.0000000000e+00 +0.0000000000e+00 +2.0445364104e+03 2.0445364104e+03 0.0000000000e+00 0.0000e+00 -1.0000e+00
       -2 -1    0    0    0  501 -0.0000000000e+00 -0.0000000000e+00 -1.7235125908e+02 1.7235125908e+02 0.0000000000e+00 0.0000e+00 1.0000e+00
      -13  1    1    2    0    0 -4.0401508654e+02 -4.2342436992e-02 +1.2398702802e+02 4.2261208579e+02 0.0000000000e+00 0.0000e+00 1.0000e+00
       13  1    1    2    0    0 +4.0401508654e+02 +4.2342436992e-02 +1.7481981233e+03 1.7942755837e+03 0.0000000000e+00 0.0000e+00 -1.0000e+00
<mgrwt>
<rscale>  0 0.11872294E+04</rscale>
<asrwt>0</asrwt>
<pdfrwt beam="1">  1        2 0.31454405E+00 0.11872294E+04</pdfrwt>
<pdfrwt beam="2">  1       -2 0.26515580E-01 0.11872294E+04</pdfrwt>
<totfact> 0.95665127E+01</totfact>
</mgrwt>
<rwgt>
<wgt id='morphing_basis_vector_1'> +2.3635895e-04 </wgt>
<wgt id='morphing_basis_vector_2'> +1.5163214e-04 </wgt>
<wgt id='morphing_basis_vector_3'> +2.3636308e-04 </wgt>
<wgt id='morphing_basis_vector_4'> +1.5176539e-04 </wgt>
<wgt id='morphing_basis_vector_5'> +2.4149642e-04 </wgt>
</rwgt>
</event>
<event>
 4      1 +7.8865000e-07 1.13751200e+03 7.81860800e-03 8.56341400e-02
        2 -1    0    0  501    0 +0.0000000000e+00 +0.0000000000e+00 +1.1863259826e+03 1.1863259826e+03 0.0000000000e+00 0.0000e+00 1.0000e+00
       -2 -1    0    0    0  501 -0.0000000000e+00 -0.0000000000e+00 -2.7267666876e+02 2.7267666876e+02 0.0000000000e+00 0.0000e+00 -1.0000e+00
      -13  1    1    2    0    0 +1.4718155328e+02 -5.1656106118e+02 +2.1691638726e+02 5.7926717378e+02 0.0000000000e+00 0.0000e+00 -1.0000e+00
       13  1    1    2    0    0 -1.4718155328e+02 +5.1656106118e+02 +6.9673292661e+02 8.7973547761e+02 0.0000000000e+00 0.0000e+00 1.0000e+00
<mgrwt>
<rscale>  0 0.11375121E+04</rscale>
<asrwt>0</asrwt>
<pdfrwt beam="1">  1        2 0.18251169E+00 0.11375121E+04</pdfrwt>
<pdfrwt beam="2">  1       -2 0.41950257E-01 0.11375121E+04</pdfrwt>
<totfact> 0.12697116E+02</totfact>
</mgrwt>
<rwgt>
<wgt id='morphing_basis_vector_1'> +2.0295701e-04 </wgt>
<wgt id='morphing_basis_vector_2'> +1.3381750e-04 </wgt>
<wgt id='morphing_basis_vector_3'> +2.0137862e-04 </wgt>
<wgt id='morphing_basis_vector_4'> +1.2361746e-04 </wgt>
<wgt id='morphing_basis_vector_5'> +2.0116301e-04 </wgt>
</rwgt>
</event>
<event>
 4      1 +7.8865000e-07 1.22459000e+03 7.81860800e-03 8.49564400e-02
        2 -1    0    0  501    0 +0.0000000000e+00 +0.0000000000e+00 +1.7792594330e+03 1.7792594330e+03 0.0000000000e+00 0.0000e+00 -1.0000e+00
       -2 -1    0    0    0  501 -0.0000000000e+00 -0.0000000000e+00 -2.1070847643e+02 2.1070847643e+02 0.0000000000e+00 0.0000e+00 1.0000e+00
      -13  1    1    2    0    0 -2.3462582411e+02 +3.1474090245e+02 +2.0705224237e+01 3.9311552924e+02 0.0000000000e+00 0.0000e+00 1.0000e+00
       13  1    1    2    0    0 +2.3462582411e+02 -3.1474090245e+02 +1.5478457323e+03 1.5968523802e+03 0.0000000000e+00 0.0000e+00 -1.0000e+00
<mgrwt>
<rscale>  0 0.12245898E+04</rscale>
<asrwt>0</asrwt>
<pdfrwt beam="1">  1        2 0.27373221E+00 0.12245898E+04</pdfrwt>
<pdfrwt beam="2">  1       -2 0.32416690E-01 0.12245898E+04</pdfrwt>
<totfact> 0.93994403E+01</totfact>
</mgrwt>
<rwgt>
<wgt id='morphing_basis_vector_1'> +2.6570155e-04 </wgt>
<wgt id='morphing_basis_vector_2'> +1.7088428e-04 </wgt>
<wgt id='morphing_basis_vector_3'> +2.6725296e-04 </wgt>
<wgt id='morphing_basis_vector_4'> +1.7306642e-04 </wgt>
<wgt id='morphing_basis_vector_5'> +2.7532289e-04 </wgt>
</rwgt>
</event>
<event>
 4      1 +7.8865000e-07 1.17328500e+03 7.81860800e-03 8.53482500e-02
        2 -1    0    0  501    0 +0.0000000000e+00 +0.0000000000e+00 +1.6095371692e+03 1.6095371692e+03 0.0000000000e+00 0.0000e+00 -1.0000e+00
       -2 -1    0    0    0  501 -0.0000000000e+00 -0.0000000000e+00 -2.1381880418e+02 2.1381880418e+02 0.0000000000e+00 0.0000e+00 1.0000e+00
      -13  1    1    2    0    0 -1.8500922247e+02 +5.5561384063e+02 +6.4370823413e+02 8.7022723641e+02 0.0000000000e+00 0.0000e+00 1.0000e+00
       13  1    1    2    0    0 +1.8500922247e+02 -5.5561384063e+02 +7.5201013093e+02 9.5312873701e+02 0.0000000000e+00 0.0000e+00 -1.0000e+00
<mgrwt>
<rscale>  0 0.11732848E+04</rscale>
<asrwt>0</asrwt>
<pdfrwt beam="1">  1        2 0.24762110E+00 0.11732848E+04</pdfrwt>
<pdfrwt beam="2">  1       -2 0.32895202E-01 0.11732848E+04</pdfrwt>
<totfact> 0.11414150E+02</totfact>
</mgrwt>
<rwgt>
<wgt id='morphing_basis_vector_1'> +2.3238292e-04 </wgt>
<wgt id='morphing_basis_vector_2'> +1.6387438e-04 </wgt>
<wgt id='morphing_basis_vector_3'> +2.3255973e-04 </wgt>
<wgt id='morphing_basis_vector_4'> +1.3361634e-04 </wgt>
<wgt id='morphing_basis_vector_5'> +2.2897430e-04 </wgt>
</rwgt>
</event>
<event>
 4      1 +7.8865000e-07 1.28529400e+03 7.81860800e-03 8.45181300e-02
        2 -1    0    0  501    0 +0.0000000000e+00 +0.0000000000e+00 +2.7466381713e+03 2.7466381713e+03 0.0000000000e+00 0.0000e+00 -1.0000e+00
       -2 -1    0    0    0  501 -0.0000000000e+00 -0.0000000000e+00 -1.5036390254e+02 1.5036390254e+02 0.0000000000e+00 0.0000e+00 1.0000e+00
      -13  1    1    2    0    0 -5.3331805308e+02 -2.8337762606e+02 +8.0296192990e+02 1.0047282645e+03 0.0000000000e+00 0.0000e+00 1.0000e+00
       13  1    1    2    0    0 +5.3331805308e+02 +2.8337762606e+02 +1.7933123389e+03 1.8922738093e+03 0.0000000000e+00 0.0000e+00 -1.0000e+00
<mgrwt>
<rscale>  0 0.12852941E+04</rscale>
<asrwt>0</asrwt>
<pdfrwt beam="1">  1        2 0.42255968E+00 0.12852941E+04</pdfrwt>
<pdfrwt beam="2">  1       -2 0.23132910E-01 0.12852941E+04</pdfrwt>
<totfact> 0.46613720E+01</totfact>
</mgrwt>
<rwgt>
<wgt id='morphing_basis_vector_1'> +3.2212125e-04 </wgt>
<wgt id='morphing_basis_vector_2'> +2.1475543e-04 </wgt>
<wgt id='morphing_basis_vector_3'> +3.2726568e-04 </wgt>
<wgt id='morphing_basis_vector_4'> +2.0714862e-04 </wgt>
<wgt id='morphing_basis_vector_5'> +3.3720348e-04 </wgt>
</rwgt>
</event>
<event>
 4      1 +7.8865000e-07 1.13557400e+03 7.81860800e-03 8.56499500e-02
        2 -1    0    0  501    0 +0.0000000000e+00 +0.0000000000e+00 +1.4450156133e+03 1.4450156133e+03 0.0000000000e+00 0.0000e+00 -1.0000e+00
       -2 -1    0    0    0  501 -0.0000000000e+00 -0.0000000000e+00 -2.2309939070e+02 2.2309939070e+02 0.0000000000e+00 0.0000e+00 1.0000e+00
      -13  1    1    2    0    0 +1.0976391818e+02 -3.9014900105e+02 +2.6839783627e+01 4.0618312956e+02 0.0000000000e+00 0.0000e+00 1.0000e+00
       13  1    1    2    0    0 -1.0976391818e+02 +3.9014900105e+02 +1.1950764390e+03 1.2619318744e+03 0.0000000000e+00 0.0000e+00 -1.0000e+00
<mgrwt>
<rscale>  0 0.11355740E+04</rscale>
<asrwt>0</asrwt>
<pdfrwt beam="1">  1        2 0.22231009E+00 0.11355740E+04</pdfrwt>
<pdfrwt beam="2">  1       -2 0.34322984E-01 0.11355740E+04</pdfrwt>
<totfact> 0.13092938E+02</totfact>
</mgrwt>
<rwgt>
<wgt id='morphing_basis_vector_1'> +1.9992914e-04 </wgt>
<wgt id='morphing_basis_vector_2'> +1.2772517e-04 </wgt>
<wgt id='morphing_basis_vector_3'> +1.9815487e-04 </wgt>
<wgt id='morphing_basis_vector_4'> +1.2561499e-04 </wgt>
<wgt id='morphing_basis_vector_5'> +1.9989679e-04 </wgt>
</rwgt>
</event>
<event>
 4      1 +7.8865000e-07 1.14425000e+03 7.81860800e-03 8.55794500e-02
        2 -1    0    0  501    0 +0.0000000000e+00 +0.0000000000e+00 +1.8650681287e+03 1.8650681287e+03 0.0000000000e+00 0.0000e+00 -1.0000e+00
       -2 -1    0    0    0  501 -0.0000000000e+00 -0.0000000000e+00 -1.7550398393e+02 1.7550398393e+02 0.0000000000e+00 0.0000e+00 1.0000e+00
      -13  1    1    2    0    0 +5.1382257250e+02 +5.1093541305e+01 +4.0540729841e+02 6.5649010927e+02 0.0000000000e+00 0.0000e+00 1.0000e+00
       13  1    1    2    0    0 -5.1382257250e+02 -5.1093541305e+01 +1.2841568463e+03 1.3840820033e+03 0.0000000000e+00 0.0000e+00 -1.0000e+00
<mgrwt>
<rscale>  0 0.11442498E+04</rscale>
<asrwt>0</asrwt>
<pdfrwt beam="1">  1        2 0.28693354E+00 0.11442498E+04</pdfrwt>
<pdfrwt beam="2">  1       -2 0.27000614E-01 0.11442498E+04</pdfrwt>
<totfact> 0.11711496E+02</totfact>
</mgrwt>
<rwgt>
<wgt id='morphing_basis_vector_1'> +2.0675825e-04 </wgt>
<wgt id='morphing_basis_vector_2'> +1.3463497e-04 </wgt>
<wgt id='morphing_basis_vector_3'> +2.0534180e-04 </wgt>
<wgt id='morphing_basis_vector_4'> +1.2802322e-04 </wgt>
<wgt id='morphing_basis_vector_5'> +2.0636951e-04 </wgt>
</rwgt>
</event>
<event>
 4      1 +7.8865000e-07 1.08147100e+03 7.81860800e-03 8.61048100e-02
        2 -1    0    0  501    0 +0.0000000000e+00 +0.0000000000e+00 +1.8494133212e+03 1.8494133212e+03 0.0000000000e+00 0.0000e+00 -1.0000e+00
       -2 -1    0    0    0  501 -0.0000000000e+00 -0.0000000000e+00 -1.5810128600e+02 1.5810128600e+02 0.0000000000e+00 0.0000e+00 1.0000e+00
      -13  1    1    2    0    0 -5.2137846371e+02 -2.3779570433e+01 +5.8317970707e+02 7.8262349897e+02 0.0000000000e+00 0.0000e+00 1.0000e+00
       13  1    1    2    0    0 +5.2137846371e+02 +2.3779570433e+01 +1.1081323281e+03 1.2248911082e+03 0.0000000000e+00 0.0000e+00 -1.0000e+00
<mgrwt>
<rscale>  0 0.10814705E+04</rscale>
<asrwt>0</asrwt>
<pdfrwt beam="1">  1        2 0.28452511E+00 0.10814705E+04</pdfrwt>
<pdfrwt beam="2">  1       -2 0.24323276E-01 0.10814705E+04</pdfrwt>
<totfact> 0.14380167E+02</totfact>
</mgrwt>
<rwgt>
<wgt id='morphing_basis_vector_1'> +1.6848089e-04 </wgt>
<wgt id='morphing_basis_vector_2'> +1.1169341e-04 </wgt>
<wgt id='morphing_basis_vector_3'> +1.6530007e-04 </wgt>
<wgt id='morphing_basis_vector_4'> +9.8823676e-05 </wgt>
<wgt id='morphing_basis_vector_5'> +1.6203879e-04 </wgt>
</rwgt>
</event>
<event>
 4      1 +7.8865000e-07 1.26970500e+03 7.81860800e-03 8.46282300e-02
        2 -1    0    0  501    0 +0.0000000000e+00 +0.0000000000e+00 +2.6044015509e+03 2.6044015509e+03 0.0000000000e+00 0.0000e+00 -1.0000e+00
       -2 -1    0    0    0  501 -0.0000000000e+00 -0.0000000000e+00 -1.5475242390e+02 1.5475242390e+02 0.0000000000e+00 0.0000e+00 1.0000e+00
      -13  1    1    2    0    0 -2.6761478442e+02 +5.4495331184e+02 +8.2151312117e+02 1.0215065312e+03 0.0000000000e+00 0.0000e+00 1.0000e+00
       13  1    1    2    0    0 +2.6761478442e+02 -5.4495331184e+02 +1.6281360058e+03 1.7376474436e+03 0.0000000000e+00 0.0000e+00 -1.0000e+00
<mgrwt>
<rscale>  0 0.12697046E+04</rscale>
<asrwt>0</asrwt>
<pdfrwt beam="1">  1        2 0.40067713E+00 0.12697046E+04</pdfrwt>
<pdfrwt beam="2">  1       -2 0.23808067E-01 0.12697046E+04</pdfrwt>
<totfact> 0.54245086E+01</totfact>
</mgrwt>
<rwgt>
<wgt id='morphing_basis_vector_1'> +3.0817822e-04 </wgt>
<wgt id='morphing_basis_vector_2'> +2.0680778e-04 </wgt>
<wgt id='morphing_basis_vector_3'> +3.1254477e-04 </wgt>
<wgt id='morphing_basis_vector_4'> +1.9561807e-04 </wgt>
<wgt id='morphing_basis_vector_5'> +3.2026009e-04 </wgt>
</rwgt>
</event>
<event>
 4      1 +7.8865000e-07 1.07019300e+03 7.81860800e-03 8.62030800e-02
        2 -1    0    0  501    0 +0.0000000000e+00 +0.0000000000e+00 +1.1385097744e+03 1.1385097744e+03 0.0000000000e+00 0.0000e+00 1.0000e+00
       -2 -1    0    0    0  501 -0.0000000000e+00 -0.0000000000e+00 -2.5149389052e+02 2.5149389052e+02 0.0000000000e+00 0.0000e+00 -1.0000e+00
      -13  1    1    2    0    0 -2.2415563697e+02 +4.1069710910e+02 +1.0628488555e+02 4.7980656717e+02 0.0000000000e+00 0.0000e+00 -1.0000e+00
       13  1    1    2    0    0 +2.2415563697e+02 -4.1069710910e+02 +7.8073099837e+02 9.1019709778e+02 0.0000000000e+00 0.0000e+00 1.0000e+00
<mgrwt>
<rscale>  0 0.10701930E+04</rscale>
<asrwt>0</asrwt>
<pdfrwt beam="1">  1        2 0.17515535E+00 0.10701930E+04</pdfrwt>
<pdfrwt beam="2">  1       -2 0.38691368E-01 0.10701930E+04</pdfrwt>
<totfact> 0.15832311E+02</totfact>
</mgrwt>
<rwgt>
<wgt id='morphing_basis_vector_1'> +1.6066517e-04 </wgt>
<wgt id='morphing_basis_vector_2'> +1.0319766e-04 </wgt>
<wgt id='morphing_basis_vector_3'> +1.5719096e-04 </wgt>
<wgt id='morphing_basis_vector_4'> +9.6672896e-05 </wgt>
<wgt id='morphing_basis_vector_5'> +1.5504687e-04 </wgt>
</rwgt>
</event>
<event>
 4      1 +7.8865000e-07 1.21055200e+03 7.81860800e-03 8.50616100e-02
        2 -1    0    0  501    0 +0.0000000000e+00 +0.0000000000e+00 +2.1980782992e+03 2.1980782992e+03 0.0000000000e+00 0.0000e+00 1.0000e+00
       -2 -1    0    0    0  501 -0.0000000000e+00 -0.0000000000e+00 -1.6667252588e+02 1.6667252588e+02 0.0000000000e+00 0.0000e+00 -1.0000e+00
      -13  1    1    2    0    0 +4.1299595206e+02 -4.2985907379e+02 +8.1068593842e+02 1.0062585008e+03 0.0000000000e+00 0.0000e+00 -1.0000e+00
       13  1    1    2    0    0 -4.1299595206e+02 +4.2985907379e+02 +1.2207198349e+03 1.3584923242e+03 0.0000000000e+00 0.0000e+00 1.0000e+00
<mgrwt>
<rscale>  0 0.12105524E+04</rscale>
<asrwt>0</asrwt>
<pdfrwt beam="1">  1        2 0.33816587E+00 0.12105524E+04</pdfrwt>
<pdfrwt beam="2">  1       -2 0.25641929E-01 0.12105524E+04</pdfrwt>
<totfact> 0.82882547E+01</totfact>
</mgrwt>
<rwgt>
<wgt id='morphing_basis_vector_1'> +2.5895692e-04 </wgt>
<wgt id='morphing_basis_vector_2'> +1.7722464e-04 </wgt>
<wgt id='morphing_basis_vector_3'> +2.6054157e-04 </wgt>
<wgt id='morphing_basis_vector_4'> +1.5691506e-04 </wgt>
<wgt id='morphing_basis_vector_5'> +2.6169076e-04 </wgt>
</rwgt>
</event>
<event>
 4      1 +7.8865000e-07 1.07741300e+03 7.81860800e-03 8.61400200e-02
        2 -1    0    0  501    0 +0.0000000000e+00 +0.0000000000e+00 +9.9341658650e+02 9.9341658650e+02 0.0000000000e+00 0.0000e+00 1.0000e+00
       -2 -1    0    0    0  501 -0.0000000000e+00 -0.0000000000e+00 -2.9212801691e+02 2.9212801691e+02 0.0000000000e+00 0.0000e+00 -1.0000e+00
      -13  1    1    2    0    0 -4.7801540107e+02 -2.3940858966e+02 +2.7159128529e+02 5.9964741533e+02 0.0000000000e+00 0.0000e+00 -1.0000e+00
       13  1    1    2    0    0 +4.7801540107e+02 +2.3940858966e+02 +4.2969728431e+02 6.8589718807e+02 0.0000000000e+00 0.0000e+00 1.0000e+00
<mgrwt>
<rscale>  0 0.10774132E+04</rscale>
<asrwt>0</asrwt>
<pdfrwt beam="1">  1        2 0.15283332E+00 0.10774132E+04</pdfrwt>
<pdfrwt beam="2">  1       -2 0.44942772E-01 0.10774132E+04</pdfrwt>
<totfact> 0.14621819E+02</totfact>
</mgrwt>
<rwgt>
<wgt id='morphing_basis_vector_1'> +1.6770801e-04 </wgt>
<wgt id='morphing_basis_vector_2'> +1.1484203e-04 </wgt>
<wgt id='morphing_basis_vector_3'> +1.6445536e-04 </wgt>
<wgt id='morphing_basis_vector_4'> +9.4696038e-05 </wgt>
<wgt id='morphing_basis_vector_5'> +1.5928493e-04 </wgt>
</rwgt>
</event>
<event>
 4      1 +7.8865000e-07 1.07260100e+03 7.81860800e-03 8.61819900e-02
        2 -1    0    0  501    0 +0.0000000000e+00 +0.0000000000e+00 +8.8720796692e+02 8.8720796692e+02 0.0000000000e+00 0.0000e+00 -1.0000e+00
       -2 -1    0    0    0  501 -0.0000000000e+00 -0.0000000000e+00 -3.2418379385e+02 3.2418379385e+02 0.0000000000e+00 0.0000e+00 1.0000e+00
      -13  1    1    2    0    0 -2.4083006150e+01 -4.5594939270e+02 -3.6224982337e+01 4.5801974765e+02 0.0000000000e+00 0.0000e+00 1.0000e+00
       13  1    1    2    0    0 +2.4083006150e+01 +4.5594939270e+02 +5.9924915540e+02 7.5337201312e+02 0.0000000000e+00 0.0000e+00 -1.0000e+00
<mgrwt>
<rscale>  0 0.10726014E+04</rscale>
<asrwt>0</asrwt>
<pdfrwt beam="1">  1        2 0.13649353E+00 0.10726014E+04</pdfrwt>
<pdfrwt beam="2">  1       -2 0.49874430E-01 0.10726014E+04</pdfrwt>
<totfact> 0.13984880E+02</totfact>
</mgrwt>
<rwgt>
<wgt id='morphing_basis_vector_1'> +1.6187525e-04 </wgt>
<wgt id='morphing_basis_vector_2'> +1.0366458e-04 </wgt>
<wgt id='morphing_basis_vector_3'> +1.5845328e-04 </wgt>
<wgt id='morphing_basis_vector_4'> +9.7838177e-05 </wgt>
<wgt id='morphing_basis_vector_5'> +1.5656589e-04 </wgt>
</rwgt>
</event>
<event>
 4      1 +7.8865000e-07 1.08927500e+03 7.81860800e-03 8.60375200e-02
        2 -1    0    0  501    0 +0.0000000000e+00 +0.0000000000e+00 +1.7432199612e+03 1.7432199612e+03 0.0000000000e+00 0.0000e+00 -1.0000e+00
       -2 -1    0    0    0  501 -0.0000000000e+00 -0.0000000000e+00 -1.7016226384e+02 1.7016226384e+02 0.0000000000e+00 0.0000e+00 1.0000e+00
      -13  1    1    2    0    0 +2.7725919989e+02 -5.5430663500e+01 -3.1141922942e+01 2.8445569381e+02 0.0000000000e+00 0.0000e+00 1.0000e+00
       13  1    1    2    0    0 -2.7725919989e+02 +5.5430663500e+01 +1.6041996203e+03 1.6289265312e+03 0.0000000000e+00 0.0000e+00 -1.0000e+00
<mgrwt>
<rscale>  0 0.10892755E+04</rscale>
<asrwt>0</asrwt>
<pdfrwt beam="1">  1        2 0.26818767E+00 0.10892755E+04</pdfrwt>
<pdfrwt beam="2">  1       -2 0.26178811E-01 0.10892755E+04</pdfrwt>
<totfact> 0.14495751E+02</totfact>
</mgrwt>
<rwgt>
<wgt id='morphing_basis_vector_1'> +1.7086664e-04 </wgt>
<wgt id='morphing_basis_vector_2'> +1.0818658e-04 </wgt>
<wgt id='morphing_basis_vector_3'> +1.6781916e-04 </wgt>
<wgt id='morphing_basis_vector_4'> +1.0549873e-04 </wgt>
<wgt id='morphing_basis_vector_5'> +1.6734131e-04 </wgt>
</rwgt>
</event>
<event>
 4      1 +7.8865000e-07 1.18176800e+03 7.81860800e-03 8.52820200e-02
        2 -1    0    0  501    0 +0.0000000000e+00 +0.0000000000e+00 +4.6580017039e+02 4.6580017039e+02 0.0000000000e+00 0.0000e+00 -1.0000e+00
       -2 -1    0    0    0  501 -0.0000000000e+00 -0.0000000000e+00 -7.4955772573e+02 7.4955772573e+02 0.0000000000e+00 0.0000e+00 1.0000e+00
      -13  1    1    2    0    0 -3.0101889239e+02 -1.3718569222e+02 -6.4539858546e+02 7.2523901015e+02 0.0000000000e+00 0.0000e+00 1.0000e+00
       13  1    1    2    0    0 +3.0101889239e+02 +1.3718569222e+02 +3.6164103012e+02 4.9011888597e+02 0.0000000000e+00 0.0000e+00 -1.0000e+00
<mgrwt>
<rscale>  0 0.11817684E+04</rscale>
<asrwt>0</asrwt>
<pdfrwt beam="1">  1        2 0.71661566E-01 0.11817684E+04</pdfrwt>
<pdfrwt beam="2">  1       -2 0.11531657E+00 0.11817684E+04</pdfrwt>
<totfact> 0.47079854E+01</totfact>
</mgrwt>
<rwgt>
<wgt id='morphing_basis_vector_1'> +2.3213887e-04 </wgt>
<wgt id='morphing_basis_vector_2'> +1.4851785e-04 </wgt>
<wgt id='morphing_basis_vector_3'> +2.3191856e-04 </wgt>
<wgt id='morphing_basis_vector_4'> +1.4907438e-04 </wgt>
<wgt id='morphing_basis_vector_5'> +2.3683865e-04 </wgt>
</rwgt>
</event>
<event>
 4      1 +7.8865000e-07 1.12794500e+03 7.81860800e-03 8.57124900e-02
        2 -1    0    0  501    0 +0.0000000000e+00 +0.0000000000e+00 +9.1291601510e+02 9.1291601510e+02 0.0000000000e+00 0.0000e+00 1.0000e+00
       -2 -1    0    0    0  501 -0.0000000000e+00 -0.0000000000e+00 -3.4840564700e+02 3.4840564700e+02 0.0000000000e+00 0.0000e+00 -1.0000e+00
      -13  1    1    2    0    0 +1.0935196748e+02 +4.7940657341e+02 -2.6584754800e+01 4.9243808201e+02 0.0000000000e+00 0.0000e+00 -1.0000e+00
       13  1    1    2    0    0 -1.0935196748e+02 -4.7940657341e+02 +5.9109512290e+02 7.6888358010e+02 0.0000000000e+00 0.0000e+00 1.0000e+00
<mgrwt>
<rscale>  0 0.11279452E+04</rscale>
<asrwt>0</asrwt>
<pdfrwt beam="1">  1        2 0.14044862E+00 0.11279452E+04</pdfrwt>
<pdfrwt beam="2">  1       -2 0.53600869E-01 0.11279452E+04</pdfrwt>
<totfact> 0.11622905E+02</totfact>
</mgrwt>
<rwgt>
<wgt id='morphing_basis_vector_1'> +1.9558744e-04 </wgt>
<wgt id='morphing_basis_vector_2'> +1.2641286e-04 </wgt>
<wgt id='morphing_basis_vector_3'> +1.9362918e-04 </wgt>
<wgt id='morphing_basis_vector_4'> +1.2097393e-04 </wgt>
<wgt id='morphing_basis_vector_5'> +1.9416259e-04 </wgt>
</rwgt>
</event>
<event>
 4      1 +7.8865000e-07 1.13570100e+03 7.81860800e-03 8.56489100e-02
        2 -1    0    0  501    0 +0.0000000000e+00 +0.0000000000e+00 +2.1460071976e+03 2.1460071976e+03 0.0000000000e+00 0.0000e+00 1.0000e+00
       -2 -1    0    0    0  501 -0.0000000000e+00 -0.0000000000e+00 -1.5025783897e+02 1.5025783897e+02 0.0000000000e+00 0.0000e+00 -1.0000e+00
      -13  1    1    2    0    0 -4.3630300627e+02 -3.6314627204e+02 +1.0277874535e+03 1.1741305624e+03 0.0000000000e+00 0.0000e+00 -1.0000e+00
       13  1    1    2    0    0 +4.3630300627e+02 +3.6314627204e+02 +9.6796190514e+02 1.1221344741e+03 0.0000000000e+00 0.0000e+00 1.0000e+00
<mgrwt>
<rscale>  0 0.11357014E+04</rscale>
<asrwt>0</asrwt>
<pdfrwt beam="1">  1        2 0.33015493E+00 0.11357014E+04</pdfrwt>
<pdfrwt beam="2">  1       -2 0.23116592E-01 0.11357014E+04</pdfrwt>
<totfact> 0.10663820E+02</totfact>
</mgrwt>
<rwgt>
<wgt id='morphing_basis_vector_1'> +2.0766139e-04 </wgt>
<wgt id='morphing_basis_vector_2'> +1.5080651e-04 </wgt>
<wgt id='morphing_basis_vector_3'> +2.0647621e-04 </wgt>
<wgt id='morphing_basis_vector_4'> +1.1290941e-04 </wgt>
<wgt id='morphing_basis_vector_5'> +1.9915372e-04 </wgt>
</rwgt>
</event>
<event>
 4      1 +7.8865000e-07 1.23904700e+03 7.81860800e-03 8.48496700e-02
        2 -1    0    0  501    0 +0.0000000000e+00 +0.0000000000e+00 +1.2158223145e+03 1.2158223145e+03 0.0000000000e+00 0.0000e+00 -1.0000e+00
       -2 -1    0    0    0  501 -0.0000000000e+00 -0.0000000000e+00 -3.1567882369e+02 3.1567882369e+02 0.0000000000e+00 0.0000e+00 1.0000e+00
      -13  1    1    2    0    0 +1.4124455246e+02 +2.3374325599e+02 -2.3725895307e+02 3.6177029194e+02 0.0000000000e+00 0.0000e+00 1.0000e+00
       13  1    1    2    0    0 -1.4124455246e+02 -2.3374325599e+02 +1.1374024438e+03 1.1697308462e+03 0.0000000000e+00 0.0000e+00 -1.0000e+00
<mgrwt>
<rscale>  0 0.12390470E+04</rscale>
<asrwt>0</asrwt>
<pdfrwt beam="1">  1        2 0.18704958E+00 0.12390470E+04</pdfrwt>
<pdfrwt beam="2">  1       -2 0.48565974E-01 0.12390470E+04</pdfrwt>
<totfact> 0.91485693E+01</totfact>
</mgrwt>
<rwgt>
<wgt id='morphing_basis_vector_1'> +2.7763974e-04 </wgt>
<wgt id='morphing_basis_vector_2'> +1.7841211e-04 </wgt>
<wgt id='morphing_basis_vector_3'> +2.7983156e-04 </wgt>
<wgt id='morphing_basis_vector_4'> +1.8210578e-04 </wgt>
<wgt id='morphing_basis_vector_5'> +2.8932113e-04 </wgt>
</rwgt>
</event>
<event>
 4      1 +7.8865000e-07 1.23466500e+03 7.81860800e-03 8.48818700e-02
        2 -1    0    0  501    0 +0.0000000000e+00 +0.0000000000e+00 +9.5553195397e+02 9.5553195397e+02 0.0000000000e+00 0.0000e+00 1.0000e+00
       -2 -1    0    0    0  501 -0.0000000000e+00 -0.0000000000e+00 -3.9883475154e+02 3.9883475154e+02 0.0000000000e+00 0.0000e+00 -1.0000e+00
      -13  1    1    2    0    0 +9.7089931499e+01 +1.9738607063e+02 -3.5438538581e+02 4.1710516342e+02 0.0000000000e+00 0.0000e+00 -1.0000e+00
       13  1    1    2    0    0 -9.7089931499e+01 -1.9738607063e+02 +9.1108258824e+02 9.3726154209e+02 0.0000000000e+00 0.0000e+00 1.0000e+00
<mgrwt>
<rscale>  0 0.12346649E+04</rscale>
<asrwt>0</asrwt>
<pdfrwt beam="1">  1        2 0.14700492E+00 0.12346649E+04</pdfrwt>
<pdfrwt beam="2">  1       -2 0.61359193E-01 0.12346649E+04</pdfrwt>
<totfact> 0.82308923E+01</totfact>
</mgrwt>
<rwgt>
<wgt id='morphing_basis_vector_1'> +2.7391208e-04 </wgt>
<wgt id='morphing_basis_vector_2'> +1.7590410e-04 </wgt>
<wgt id='morphing_basis_vector_3'> +2.7589585e-04 </wgt>
<wgt id='morphing_basis_vector_4'> +1.7944578e-04 </wgt>
<wgt id='morphing_basis_vector_5'> +2.8503198e-04 </wgt>
</rwgt>
</event>
<event>
 4      1 +7.8865000e-07 1.12286000e+03 7.81860800e-03 8.57544600e-02
        2 -1    0    0  501    0 +0.0000000000e+00 +0.0000000000e+00 +9.3130862440e+02 9.3130862440e+02 0.0000000000e+00 0.0000e+00 1.0000e+00
       -2 -1    0    0    0  501 -0.0000000000e+00 -0.0000000000e+00 -3.3845264267e+02 3.3845264267e+02 0.0000000000e+00 0.0000e+00 -1.0000e+00
      -13  1    1    2    0    0 +2.5020105455e+02 -3.6450207159e+02 -9.4880009256e+01 4.5217755810e+02 0.0000000000e+00 0.0000e+00 -1.0000e+00
       13  1    1    2    0    0 -2.5020105455e+02 +3.6450207159e+02 +6.8773599098e+02 8.1758370898e+02 0.0000000000e+00 0.0000e+00 1.0000e+00
<mgrwt>
<rscale>  0 0.11228604E+04</rscale>
<asrwt>0</asrwt>
<pdfrwt beam="1">  1        2 0.14327825E+00 0.11228604E+04</pdfrwt>
<pdfrwt beam="2">  1       -2 0.52069638E-01 0.11228604E+04</pdfrwt>
<totfact> 0.11983931E+02</totfact>
</mgrwt>
<rwgt>
<wgt id='morphing_basis_vector_1'> +1.9183966e-04 </wgt>
<wgt id='morphing_basis_vector_2'> +1.2284131e-04 </wgt>
<wgt id='morphing_basis_vector_3'> +1.8969960e-04 </wgt>
<wgt id='morphing_basis_vector_4'> +1.1943194e-04 </wgt>
<wgt id='morphing_basis_vector_5'> +1.9050547e-04 </wgt>
</rwgt>
</event>
<event>
 4      1 +7.8865000e-07 1.07314400e+03 7.81860800e-03 8.61772500e-02
        2 -1    0    0  501    0 +0.0000000000e+00 +0.0000000000e+00 +3.8391168424e+02 3.8391168424e+02 0.0000000000e+00 0.0000e+00 -1.0000e+00
       -2 -1    0    0    0  501 -0.0000000000e+00 -0.0000000000e+00 -7.4993700323e+02 7.4993700323e+02 0.0000000000e+00 0.0000e+00 1.0000e+00
      -13  1    1    2    0    0 -2.0852331914e+00 +5.0246269838e+02 +1.5881602821e+01 5.0271794952e+02 0.0000000000e+00 0.0000e+00 1.0000e+00
       13  1    1    2    0    0 +2.0852331914e+00 -5.0246269838e+02 -3.8190692181e+02 6.3113073795e+02 0.0000000000e+00 0.0000e+00 -1.0000e+00
<mgrwt>
<rscale>  0 0.10731441E+04</rscale>
<asrwt>0</asrwt>
<pdfrwt beam="1">  1        2 0.59063337E-01 0.10731441E+04</pdfrwt>
<pdfrwt beam="2">  1       -2 0.11537492E+00 0.10731441E+04</pdfrwt>
<totfact> 0.58981653E+01</totfact>
</mgrwt>
<rwgt>
<wgt id='morphing_basis_vector_1'> +1.8050617e-04 </wgt>
<wgt id='morphing_basis_vector_2'> +1.5917479e-04 </wgt>
<wgt id='morphing_basis_vector_3'> +1.7736445e-04 </wgt>
<wgt id='morphing_basis_vector_4'> +6.8423266e-05 </wgt>
<wgt id='morphing_basis_vector_5'> +1.5503408e-04 </wgt>
</rwgt>
</event>
<event>
 4      1 +7.8865000e-07 1.19330000e+03 7.81860800e-03 8.51929300e-02
        2 -1    0    0  501    0 +0.0000000000e+00 +0.0000000000e+00 +6.5045112210e+02 6.5045112210e+02 0.0000000000e+00 0.0000e+00 -1.0000e+00
       -2 -1    0    0    0  501 -0.0000000000e+00 -0.0000000000e+00 -5.4729926025e+02 5.4729926025e+02 0.0000000000e+00 0.0000e+00 1.0000e+00
      -13  1    1    2    0    0 +5.6056025654e+02 +1.9243849303e+02 +1.2061501363e+02 6.0482092914e+02 0.0000000000e+00 0.0000e+00 1.0000e+00
       13  1    1    2    0    0 -5.6056025654e+02 -1.9243849303e+02 -1.7463151776e+01 5.9292945321e+02 0.0000000000e+00 0.0000e+00 -1.0000e+00
<mgrwt>
<rscale>  0 0.11933003E+04</rscale>
<asrwt>0</asrwt>
<pdfrwt beam="1">  1        2 0.10006940E+00 0.11933003E+04</pdfrwt>
<pdfrwt beam="2">  1       -2 0.84199886E-01 0.11933003E+04</pdfrwt>
<totfact> 0.68088886E+01</totfact>
</mgrwt>
<rwgt>
<wgt id='morphing_basis_vector_1'> +2.5377634e-04 </wgt>
<wgt id='morphing_basis_vector_2'> +1.9318121e-04 </wgt>
<wgt id='morphing_basis_vector_3'> +2.5563467e-04 </wgt>
<wgt id='morphing_basis_vector_4'> +1.3313902e-04 </wgt>
<wgt id='morphing_basis_vector_5'> +2.4528843e-04 </wgt>
</rwgt>
</event>
<event>
 4      1 +7.8865000e-07 1.09992800e+03 7.81860800e-03 8.59466200e-02
        2 -1    0    0  501    0 +0.0000000000e+00 +0.0000000000e+00 +1.2651361217e+03 1.2651361217e+03 0.0000000000e+00 0.0000e+00 -1.0000e+00
       -2 -1    0    0    0  501 -0.0000000000e+00 -0.0000000000e+00 -2.3907329010e+02 2.3907329010e+02 0.0000000000e+00 0.0000e+00 1.0000e+00
      -13  1    1    2    0    0 +4.8013746632e+02 +1.5089037974e+02 +2.0981571609e+02 5.4527289313e+02 0.0000000000e+00 0.0000e+00 1.0000e+00
       13  1    1    2    0    0 -4.8013746632e+02 -1.5089037974e+02 +8.1624711550e+02 9.5893651866e+02 0.0000000000e+00 0.0000e+00 -1.0000e+00
<mgrwt>
<rscale>  0 0.10999277E+04</rscale>
<asrwt>0</asrwt>
<pdfrwt beam="1">  1        2 0.19463632E+00 0.10999277E+04</pdfrwt>
<pdfrwt beam="2">  1       -2 0.36780507E-01 0.10999277E+04</pdfrwt>
<totfact> 0.14634217E+02</totfact>
</mgrwt>
<rwgt>
<wgt id='morphing_basis_vector_1'> +1.7841309e-04 </wgt>
<wgt id='morphing_basis_vector_2'> +1.1598527e-04 </wgt>
<wgt id='morphing_basis_vector_3'> +1.7568010e-04 </wgt>
<wgt id='morphing_basis_vector_4'> +1.0798597e-04 </wgt>
<wgt id='morphing_basis_vector_5'> +1.7433542e-04 </wgt>
</rwgt>
</event>
<event>
 4      1 +7.8865000e-07 1.15694500e+03 7.81860800e-03 8.54774800e-02
        2 -1    0    0  501    0 +0.0000000000e+00 +0.0000000000e+00 +1.7827727381e+03 1.7827727381e+03 0.0000000000e+00 0.0000e+00 -1.0000e+00
       -2 -1    0    0    0  501 -0.0000000000e+00 -0.0000000000e+00 -1.8770211928e+02 1.8770211928e+02 0.0000000000e+00 0.0000e+00 1.0000e+00
      -13  1    1    2    0    0 -3.0167395489e+02 -1.4672266687e+02 -5.1183803672e+00 3.3550098934e+02 0.0000000000e+00 0.0000e+00 1.0000e+00
       13  1    1    2    0    0 +3.0167395489e+02 +1.4672266687e+02 +1.6001889992e+03 1.6349738681e+03 0.0000000000e+00 0.0000e+00 -1.0000e+00
<mgrwt>
<rscale>  0 0.11569446E+04</rscale>
<asrwt>0</asrwt>
<pdfrwt beam="1">  1        2 0.27427272E+00 0.11569446E+04</pdfrwt>
<pdfrwt beam="2">  1       -2 0.28877250E-01 0.11569446E+04</pdfrwt>
<totfact> 0.11553265E+02</totfact>
</mgrwt>
<rwgt>
<wgt id='morphing_basis_vector_1'> +2.1428687e-04 </wgt>
<wgt id='morphing_basis_vector_2'> +1.3678898e-04 </wgt>
<wgt id='morphing_basis_vector_3'> +2.1318507e-04 </wgt>
<wgt id='morphing_basis_vector_4'> +1.3624476e-04 </wgt>
<wgt id='morphing_basis_vector_5'> +2.1642477e-04 </wgt>
</rwgt>
</event>
<event>
 4      1 +7.8865000e-07 1.23201400e+03 7.81860800e-03 8.49014200e-02
        2 -1    0    0  501    0 +0.0000000000e+00 +0.0000000000e+00 +1.3054628818e+03 1.3054628818e+03 0.0000000000e+00 0.0000e+00 -1.0000e+00
       -2 -1    0    0    0  501 -0.0000000000e+00 -0.0000000000e+00 -2.9067457514e+02 2.9067457514e+02 0.0000000000e+00 0.0000e+00 1.0000e+00
      -13  1    1    2    0    0 -5.2830829457e+01 -3.8649667572e+02 -1.1026457064e+02 4.0537519957e+02 0.0000000000e+00 0.0000e+00 1.0000e+00
       13  1    1    2    0    0 +5.2830829457e+01 +3.8649667572e+02 +1.1250528773e+03 1.1907622574e+03 0.0000000000e+00 0.0000e+00 -1.0000e+00
<mgrwt>
<rscale>  0 0.12320144E+04</rscale>
<asrwt>0</asrwt>
<pdfrwt beam="1">  1        2 0.20084044E+00 0.12320144E+04</pdfrwt>
<pdfrwt beam="2">  1       -2 0.44719166E-01 0.12320144E+04</pdfrwt>
<totfact> 0.95303814E+01</totfact>
</mgrwt>
<rwgt>
<wgt id='morphing_basis_vector_1'> +2.7185151e-04 </wgt>
<wgt id='morphing_basis_vector_2'> +1.7492670e-04 </wgt>
<wgt id='morphing_basis_vector_3'> +2.7373859e-04 </wgt>
<wgt id='morphing_basis_vector_4'> +1.7754615e-04 </wgt>
<wgt id='morphing_basis_vector_5'> +2.8243960e-04 </wgt>
</rwgt>
</event>
<event>
 4      1 +7.8865000e-07 1.19715000e+03 7.81860800e-03 8.51634200e-02
        2 -1    0    0  501    0 +0.0000000000e+00 +0.0000000000e+00 +3.5573228488e+02 3.5573228488e+02 0.0000000000e+00 0.0000e+00 -1.0000e+00
       -2 -1    0    0    0  501 -0.0000000000e+00 -0.0000000000e+00 -1.0071965433e+03 1.0071965433e+03 0.0000000000e+00 0.0000e+00 1.0000e+00
      -13  1    1    2    0    0 +2.2502556786e+02 +1.8335247658e+01 -9.5686323582e+02 9.8313780293e+02 0.0000000000e+00 0.0000e+00 1.0000e+00
       13  1    1    2    0    0 -2.2502556786e+02 -1.8335247658e+01 +3.0539897737e+02 3.7979102527e+02 0.0000000000e+00 0.0000e+00 -1.0000e+00
<mgrwt>
<rscale>  0 0.11971505E+04</rscale>
<asrwt>0</asrwt>
<pdfrwt beam="1">  1        2 0.54728045E-01 0.11971505E+04</pdfrwt>
<pdfrwt beam="2">  1       -2 0.15495331E+00 0.11971505E+04</pdfrwt>
<totfact> 0.28561926E+01</totfact>
</mgrwt>
<rwgt>
<wgt id='morphing_basis_vector_1'> +2.4369627e-04 </wgt>
<wgt id='morphing_basis_vector_2'> +1.5597414e-04 </wgt>
<wgt id='morphing_basis_vector_3'> +2.4406309e-04 </wgt>
<wgt id='morphing_basis_vector_4'> +1.5756422e-04 </wgt>
<wgt id='morphing_basis_vector_5'> +2.5018548e-04 </wgt>
</rwgt>
</event>
<event>
 4      1 +7.8865000e-07 1.21516600e+03 7.81860800e-03 8.50268800e-02
        2 -1    0    0  501    0 +0.0000000000e+00 +0.0000000000e+00 +1.3169690094e+03 1.3169690094e+03 0.0000000000e+00 0.0000e+00 1.0000e+00
       -2 -1    0    0    0  501 -0.0000000000e+00 -0.0000000000e+00 -2.8030792166e+02 2.8030792166e+02 0.0000000000e+00 0.0000e+00 -1.0000e+00
      -13  1    1    2    0    0 -2.1037097851e+02 -4.5631479967e+02 +6.9338452032e+01 5.0723462611e+02 0.0000000000e+00 0.0000e+00 -1.0000e+00
       13  1    1    2    0    0 +2.1037097851e+02 +4.5631479967e+02 +9.6732263566e+02 1.0900423049e+03 0.0000000000e+00 0.0000e+00 1.0000e+00
<mgrwt>
<rscale>  0 0.12151656E+04</rscale>
<asrwt>0</asrwt>
<pdfrwt beam="1">  1        2 0.20261061E+00 0.12151656E+04</pdfrwt>
<pdfrwt beam="2">  1       -2 0.43124296E-01 0.12151656E+04</pdfrwt>
<totfact> 0.10072556E+02</totfact>
</mgrwt>
<rwgt>
<wgt id='morphing_basis_vector_1'> +2.5865998e-04 </wgt>
<wgt id='morphing_basis_vector_2'> +1.6769023e-04 </wgt>
<wgt id='morphing_basis_vector_3'> +2.5988654e-04 </wgt>
<wgt id='morphing_basis_vector_4'> +1.6644671e-04 </wgt>
<wgt id='morphing_basis_vector_5'> +2.6640887e-04 </wgt>
</rwgt>
</event>
<event>
 4      1 +7.8865000e-07 1.12420200e+03 7.81860800e-03 8.57433600e-02
        2 -1    0    0  501    0 +0.0000000000e+00 +0.0000000000e+00 +6.8591194919e+02 6.8591194919e+02 0.0000000000e+00 0.0000e+00 1.0000e+00
       -2 -1    0    0    0  501 -0.0000000000e+00 -0.0000000000e+00 -4.6063853748e+02 4.6063853748e+02 0.0000000000e+00 0.0000e+00 -1.0000e+00
      -13  1    1    2    0    0 +1.4999670469e+02 -5.2369154912e+01 -4.3726274891e+02 4.6523139554e+02 0.0000000000e+00 0.0000e+00 -1.0000e+00
       13  1    1    2    0    0 -1.4999670469e+02 +5.2369154912e+01 +6.6253616062e+02 6.8131909113e+02 0.0000000000e+00 0.0000e+00 1.0000e+00
<mgrwt>
<rscale>  0 0.11242019E+04</rscale>
<asrwt>0</asrwt>
<pdfrwt beam="1">  1        2 0.10552492E+00 0.11242019E+04</pdfrwt>
<pdfrwt beam="2">  1       -2 0.70867467E-01 0.11242019E+04</pdfrwt>
<totfact> 0.94233723E+01</totfact>
</mgrwt>
<rwgt>
<wgt id='morphing_basis_vector_1'> +1.9227564e-04 </wgt>
<wgt id='morphing_basis_vector_2'> +1.2212832e-04 </wgt>
<wgt id='morphing_basis_vector_3'> +1.9014665e-04 </wgt>
<wgt id='morphing_basis_vector_4'> +1.2074672e-04 </wgt>
<wgt id='morphing_basis_vector_5'> +1.9152472e-04 </wgt>
</rwgt>
</event>
<event>
 4      1 +7.8865000e-07 1.12796500e+03 7.81860800e-03 8.57123200e-02
        2 -1    0    0  501    0 +0.0000000000e+00 +0.0000000000e+00 +7.0238150524e+02 7.0238150524e+02 0.0000000000e+00 0.0000e+00 -1.0000e+00
       -2 -1    0    0    0  501 -0.0000000000e+00 -0.0000000000e+00 -4.5285427956e+02 4.5285427956e+02 0.0000000000e+00 0.0000e+00 1.0000e+00
      -13  1    1    2    0    0 +1.7448123382e+02 +1.3558038998e+02 -4.0667524782e+02 4.6282880236e+02 0.0000000000e+00 0.0000e+00 1.0000e+00
       13  1    1    2    0    0 -1.7448123382e+02 -1.3558038998e+02 +6.5620247350e+02 6.9240698244e+02 0.0000000000e+00 0.0000e+00 -1.0000e+00
<mgrwt>
<rscale>  0 0.11279654E+04</rscale>
<asrwt>0</asrwt>
<pdfrwt beam="1">  1        2 0.10805869E+00 0.11279654E+04</pdfrwt>
<pdfrwt beam="2">  1       -2 0.69669889E-01 0.11279654E+04</pdfrwt>
<totfact> 0.94919841E+01</totfact>
</mgrwt>
<rwgt>
<wgt id='morphing_basis_vector_1'> +1.9471435e-04 </wgt>
<wgt id='morphing_basis_vector_2'> +1.2375268e-04 </wgt>
<wgt id='morphing_basis_vector_3'> +1.9269526e-04 </wgt>
<wgt id='morphing_basis_vector_4'> +1.2245696e-04 </wgt>
<wgt id='morphing_basis_vector_5'> +1.9427380e-04 </wgt>
</rwgt>
</event>
<event>
 4      1 +7.8865000e-07 1.24782800e+03 7.81860800e-03 8.47855700e-02
        2 -1    0    0  501    0 +0.0000000000e+00 +0.0000000000e+00 +3.4417004178e+02 3.4417004178e+02 0.0000000000e+00 0.0000e+00 -1.0000e+00
       -2 -1    0    0    0  501 -0.0000000000e+00 -0.0000000000e+00 -1.1310353148e+03 1.1310353148e+03 0.0000000000e+00 0.0000e+00 1.0000e+00
      -13  1    1    2    0    0 -2.1162385827e+02 +5.6928330709e+02 -5.6228862642e+02 8.2766940291e+02 0.0000000000e+00 0.0000e+00 1.0000e+00
       13  1    1    2    0    0 +2.1162385827e+02 -5.6928330709e+02 -2.2457664662e+02 6.4753595369e+02 0.0000000000e+00 0.0000e+00 -1.0000e+00
<mgrwt>
<rscale>  0 0.12478277E+04</rscale>
<asrwt>0</asrwt>
<pdfrwt beam="1">  1        2 0.52949238E-01 0.12478277E+04</pdfrwt>
<pdfrwt beam="2">  1       -2 0.17400543E+00 0.12478277E+04</pdfrwt>
<totfact> 0.20864884E+01</totfact>
</mgrwt>
<rwgt>
<wgt id='morphing_basis_vector_1'> +2.8946532e-04 </wgt>
<wgt id='morphing_basis_vector_2'> +1.9623554e-04 </wgt>
<wgt id='morphing_basis_vector_3'> +2.9279599e-04 </wgt>
<wgt id='morphing_basis_vector_4'> +1.8011935e-04 </wgt>
<wgt id='morphing_basis_vector_5'> +2.9754634e-04 </wgt>
</rwgt>
</event>
<event>
 4      1 +7.8865000e-07 1.14231500e+03 7.81860800e-03 8.55951200e-02
        2 -1    0    0  501    0 +0.0000000000e+00 +0.0000000000e+00 +4.5415988479e+02 4.5415988479e+02 0.0000000000e+00 0.0000e+00 -1.0000e+00
       -2 -1    0    0    0  501 -0.0000000000e+00 -0.0000000000e+00 -7.1829491008e+02 7.1829491008e+02 0.0000000000e+00 0.0000e+00 1.0000e+00
      -13  1    1    2    0    0 +5.1470853125e+01 -4.3944295700e+02 -5.0279202521e+02 6.6974560977e+02 0.0000000000e+00 0.0000e+00 1.0000e+00
       13  1    1    2    0    0 -5.1470853125e+01 +4.3944295700e+02 +2.3865699992e+02 5.0270918511e+02 0.0000000000e+00 0.0000e+00 -1.0000e+00
<mgrwt>
<rscale>  0 0.11423147E+04</rscale>
<asrwt>0</asrwt>
<pdfrwt beam="1">  1        2 0.69870752E-01 0.11423147E+04</pdfrwt>
<pdfrwt beam="2">  1       -2 0.11050691E+00 0.11423147E+04</pdfrwt>
<totfact> 0.54132867E+01</totfact>
</mgrwt>
<rwgt>
<wgt id='morphing_basis_vector_1'> +2.0458786e-04 </wgt>
<wgt id='morphing_basis_vector_2'> +1.3117166e-04 </wgt>
<wgt id='morphing_basis_vector_3'> +2.0303673e-04 </wgt>
<wgt id='morphing_basis_vector_4'> +1.2854384e-04 </wgt>
<wgt id='morphing_basis_vector_5'> +2.0498261e-04 </wgt>
</rwgt>
</event>
<event>
 4      1 +7.8865000e-07 1.11580600e+03 7.81860800e-03 8.58130600e-02
        2 -1    0    0  501    0 +0.0000000000e+00 +0.0000000000e+00 +1.3051466641e+03 1.3051466641e+03 0.0000000000e+00 0.0000e+00 -1.0000e+00
       -2 -1    0    0    0  501 -0.0000000000e+00 -0.0000000000e+00 -2.3848337072e+02 2.3848337072e+02 0.0000000000e+00 0.0000e+00 1.0000e+00
      -13  1    1    2    0    0 +2.3383437353e+02 -4.4820717056e+02 +2.0686881657e+02 5.4622604227e+02 0.0000000000e+00 0.0000e+00 1.0000e+00
       13  1    1    2    0    0 -2.3383437353e+02 +4.4820717056e+02 +8.5979447682e+02 9.9740399255e+02 0.0000000000e+00 0.0000e+00 -1.0000e+00
<mgrwt>
<rscale>  0 0.11158060E+04</rscale>
<asrwt>0</asrwt>
<pdfrwt beam="1">  1        2 0.20079179E+00 0.11158060E+04</pdfrwt>
<pdfrwt beam="2">  1       -2 0.36689750E-01 0.11158060E+04</pdfrwt>
<totfact> 0.13929186E+02</totfact>
</mgrwt>
<rwgt>
<wgt id='morphing_basis_vector_1'> +1.8814192e-04 </wgt>
<wgt id='morphing_basis_vector_2'> +1.2224598e-04 </wgt>
<wgt id='morphing_basis_vector_3'> +1.8584594e-04 </wgt>
<wgt id='morphing_basis_vector_4'> +1.1497374e-04 </wgt>
<wgt id='morphing_basis_vector_5'> +1.8536361e-04 </wgt>
</rwgt>
</event>
<event>
 4      1 +7.8865000e-07 1.18936400e+03 7.81860800e-03 8.52232200e-02
        2 -1    0    0  501    0 +0.0000000000e+00 +0.0000000000e+00 +7.5426674258e+02 7.5426674258e+02 0.0000000000e+00 0.0000e+00 -1.0000e+00
       -2 -1    0    0    0  501 -0.0000000000e+00 -0.0000000000e+00 -4.6886130370e+02 4.6886130370e+02 0.0000000000e+00 0.0000e+00 1.0000e+00
      -13  1    1    2    0    0 +2.9073085729e+02 -4.3987987333e+02 -1.4010929502e+02 5.4557249645e+02 0.0000000000e+00 0.0000e+00 1.0000e+00
       13  1    1    2    0    0 -2.9073085729e+02 +4.3987987333e+02 +4.2551473390e+02 6.7755554983e+02 0.0000000000e+00 0.0000e+00 -1.0000e+00
<mgrwt>
<rscale>  0 0.11893637E+04</rscale>
<asrwt>0</asrwt>
<pdfrwt beam="1">  1        2 0.11604104E+00 0.11893637E+04</pdfrwt>
<pdfrwt beam="2">  1       -2 0.72132508E-01 0.11893637E+04</pdfrwt>
<totfact> 0.80257934E+01</totfact>
</mgrwt>
<rwgt>
<wgt id='morphing_basis_vector_1'> +2.3900879e-04 </wgt>
<wgt id='morphing_basis_vector_2'> +1.5582141e-04 </wgt>
<wgt id='morphing_basis_vector_3'> +2.3922352e-04 </wgt>
<wgt id='morphing_basis_vector_4'> +1.5114415e-04 </wgt>
<wgt id='morphing_basis_vector_5'> +2.4322134e-04 </wgt>
</rwgt>
</event>
<event>
 4      1 +7.8865000e-07 1.25012300e+03 7.81860800e-03 8.47689000e-02
        2 -1    0    0  501    0 +0.0000000000e+00 +0.0000000000e+00 +5.5789633571e+02 5.5789633571e+02 0.0000000000e+00 0.0000e+00 -1.0000e+00
       -2 -1    0    0    0  501 -0.0000000000e+00 -0.0000000000e+00 -7.0031282525e+02 7.0031282525e+02 0.0000000000e+00 0.0000e+00 1.0000e+00
      -13  1    1    2    0    0 -5.2867642661e+02 -2.6222414142e+02 +1.3613811307e+02 6.0563508009e+02 0.0000000000e+00 0.0000e+00 1.0000e+00
       13  1    1    2    0    0 +5.2867642661e+02 +2.6222414142e+02 -2.7855460260e+02 6.5257408088e+02 0.0000000000e+00 0.0000e+00 -1.0000e+00
<mgrwt>
<rscale>  0 0.12501231E+04</rscale>
<asrwt>0</asrwt>
<pdfrwt beam="1">  1        2 0.85830205E-01 0.12501231E+04</pdfrwt>
<pdfrwt beam="2">  1       -2 0.10774044E+00 0.12501231E+04</pdfrwt>
<totfact> 0.45194371E+01</totfact>
</mgrwt>
<rwgt>
<wgt id='morphing_basis_vector_1'> +3.1884124e-04 </wgt>
<wgt id='morphing_basis_vector_2'> +2.7966569e-04 </wgt>
<wgt id='morphing_basis_vector_3'> +3.2692749e-04 </wgt>
<wgt id='morphing_basis_vector_4'> +1.3372097e-04 </wgt>
<wgt id='morphing_basis_vector_5'> +2.9654985e-04 </wgt>
</rwgt>
</event>
<event>
 4      1 +7.8865000e-07 1.22068100e+03 7.81860800e-03 8.49855800e-02
        2 -1    0    0  501    0 +0.0000000000e+00 +0.0000000000e+00 +1.5631574054e+03 1.5631574054e+03 0.0000000000e+00 0.0000e+00 -1.0000e+00
       -2 -1    0    0    0  501 -0.0000000000e+00 -0.0000000000e+00 -2.3830958150e+02 2.3830958150e+02 0.0000000000e+00 0.0000e+00 1.0000e+00
      -13  1    1    2    0    0 -1.8951318574e+02 -3.3718620457e+02 -3.4338472099e+01 3.8831548358e+02 0.0000000000e+00 0.0000e+00 1.0000e+00
       13  1    1    2    0    0 +1.8951318574e+02 +3.3718620457e+02 +1.3591862960e+03 1.4131515033e+03 0.0000000000e+00 0.0000e+00 -1.0000e+00
<mgrwt>
<rscale>  0 0.12206808E+04</rscale>
<asrwt>0</asrwt>
<pdfrwt beam="1">  1        2 0.24048575E+00 0.12206808E+04</pdfrwt>
<pdfrwt beam="2">  1       -2 0.36663014E-01 0.12206808E+04</pdfrwt>
<totfact> 0.99111354E+01</totfact>
</mgrwt>
<rwgt>
<wgt id='morphing_basis_vector_1'> +2.6249003e-04 </wgt>
<wgt id='morphing_basis_vector_2'> +1.6873484e-04 </wgt>
<wgt id='morphing_basis_vector_3'> +2.6386606e-04 </wgt>
<wgt id='morphing_basis_vector_4'> +1.7077042e-04 </wgt>
<wgt id='morphing_basis_vector_5'> +2.7163149e-04 </wgt>
</rwgt>
</event>
<event>
 4      1 +7.8865000e-07 1.07745500e+03 7.81860800e-03 8.61396600e-02
        2 -1    0    0  501    0 +0.0000000000e+00 +0.0000000000e+00 +4.7782285401e+02 4.7782285401e+02 0.0000000000e+00 0.0000e+00 -1.0000e+00
       -2 -1    0    0    0  501 -0.0000000000e+00 -0.0000000000e+00 -6.0739512597e+02 6.0739512597e+02 0.0000000000e+00 0.0000e+00 1.0000e+00
      -13  1    1    2    0    0 -8.2133468458e+00 -5.1619613953e+02 -2.1984782116e+02 5.6112296157e+02 0.0000000000e+00 0.0000e+00 1.0000e+00
       13  1    1    2    0    0 +8.2133468458e+00 +5.1619613953e+02 +9.0275549207e+01 5.2409501840e+02 0.0000000000e+00 0.0000e+00 -1.0000e+00
<mgrwt>
<rscale>  0 0.10774549E+04</rscale>
<asrwt>0</asrwt>
<pdfrwt beam="1">  1        2 0.73511208E-01 0.10774549E+04</pdfrwt>
<pdfrwt beam="2">  1       -2 0.93445404E-01 0.10774549E+04</pdfrwt>
<totfact> 0.77177636E+01</totfact>
</mgrwt>
<rwgt>
<wgt id='morphing_basis_vector_1'> +1.6594749e-04 </wgt>
<wgt id='morphing_basis_vector_2'> +1.0947347e-04 </wgt>
<wgt id='morphing_basis_vector_3'> +1.6266170e-04 </wgt>
<wgt id='morphing_basis_vector_4'> +9.7604043e-05 </wgt>
<wgt id='morphing_basis_vector_5'> +1.5949470e-04 </wgt>
</rwgt>
</event>
<event>
 4      1 +7.8865000e-07 1.11572300e+03 7.81860800e-03 8.58137500e-02
        2 -1    0    0  501    0 +0.0000000000e+00 +0.0000000000e+00 +1.9148656099e+03 1.9148656099e+03 0.0000000000e+00 0.0000e+00 -1.0000e+00
       -2 -1    0    0    0  501 -0.0000000000e+00 -0.0000000000e+00 -1.6252300471e+02 1.6252300471e+02 0.0000000000e+00 0.0000e+00 1.0000e+00
      -13  1    1    2    0    0 -3.3777513454e+02 +1.0020247007e+02 +1.6814969613e+03 1.7180118182e+03 0.0000000000e+00 0.0000e+00 -1.0000e+00
       13  1    1    2    0    0 +3.3777513454e+02 -1.0020247007e+02 +7.0845643826e+01 3.5937679637e+02 0.0000000000e+00 0.0000e+00 1.0000e+00
<mgrwt>
<rscale>  0 0.11157235E+04</rscale>
<asrwt>0</asrwt>
<pdfrwt beam="1">  1        2 0.29459469E+00 0.11157235E+04</pdfrwt>
<pdfrwt beam="2">  1       -2 0.25003541E-01 0.11157235E+04</pdfrwt>
<totfact> 0.12581147E+02</totfact>
</mgrwt>
<rwgt>
<wgt id='morphing_basis_vector_1'> +2.4673307e-04 </wgt>
<wgt id='morphing_basis_vector_2'> +2.9890262e-04 </wgt>
<wgt id='morphing_basis_vector_3'> +2.4781956e-04 </wgt>
<wgt id='morphing_basis_vector_4'> +1.7987385e-05 </wgt>
<wgt id='morphing_basis_vector_5'> +1.7900844e-04 </wgt>
</rwgt>
</event>
<event>
 4      1 +7.8865000e-07 1.16776800e+03 7.81860800e-03 8.53916300e-02
        2 -1    0    0  501    0 +0.0000000000e+00 +0.0000000000e+00 +3.4202801503e+03 3.4202801503e+03 0.0000000000e+00 0.0000e+00 1.0000e+00
       -2 -1    0    0    0  501 -0.0000000000e+00 -0.0000000000e+00 -9.9676247603e+01 9.9676247603e+01 0.0000000000e+00 0.0000e+00 -1.0000e+00
      -13  1    1    2    0    0 -4.7684032519e+02 -2.8480673100e+02 +2.2031124005e+03 2.2720466146e+03 0.0000000000e+00 0.0000e+00 1.0000e+00
       13  1    1    2    0    0 +4.7684032519e+02 +2.8480673100e+02 +1.1174915022e+03 1.2479097833e+03 0.0000000000e+00 0.0000e+00 -1.0000e+00
<mgrwt>
<rscale>  0 0.11677683E+04</rscale>
<asrwt>0</asrwt>
<pdfrwt beam="1">  1        2 0.52619686E+00 0.11677683E+04</pdfrwt>
<pdfrwt beam="2">  1       -2 0.15334810E-01 0.11677683E+04</pdfrwt>
<totfact> 0.33751000E+01</totfact>
</mgrwt>
<rwgt>
<wgt id='morphing_basis_vector_1'> +2.4469328e-04 </wgt>
<wgt id='morphing_basis_vector_2'> +2.1024767e-04 </wgt>
<wgt id='morphing_basis_vector_3'> +2.4635238e-04 </wgt>
<wgt id='morphing_basis_vector_4'> +1.0320265e-04 </wgt>
<wgt id='morphing_basis_vector_5'> +2.2258538e-04 </wgt>
</rwgt>
</event>
<event>
 4      1 +7.8865000e-07 1.28850300e+03 7.81860800e-03 8.44956600e-02
        2 -1    0    0  501    0 +0.0000000000e+00 +0.0000000000e+00 +2.7278427023e+03 2.7278427023e+03 0.0000000000e+00 0.0000e+00 -1.0000e+00
       -2 -1    0    0    0  501 -0.0000000000e+00 -0.0000000000e+00 -1.5215691353e+02 1.5215691353e+02 0.0000000000e+00 0.0000e+00 1.0000e+00
      -13  1    1    2    0    0 -1.9105680292e+02 -5.3148102690e+02 +5.9499883422e+02 8.2036479485e+02 0.0000000000e+00 0.0000e+00 1.0000e+00
       13  1    1    2    0    0 +1.9105680292e+02 +5.3148102690e+02 +1.9806869546e+03 2.0596348210e+03 0.0000000000e+00 0.0000e+00 -1.0000e+00
<mgrwt>
<rscale>  0 0.12885032E+04</rscale>
<asrwt>0</asrwt>
<pdfrwt beam="1">  1        2 0.41966807E+00 0.12885032E+04</pdfrwt>
<pdfrwt beam="2">  1       -2 0.23408758E-01 0.12885032E+04</pdfrwt>
<totfact> 0.46898283E+01</totfact>
</mgrwt>
<rwgt>
<wgt id='morphing_basis_vector_1'> +3.2373208e-04 </wgt>
<wgt id='morphing_basis_vector_2'> +2.1247019e-04 </wgt>
<wgt id='morphing_basis_vector_3'> +3.2878199e-04 </wgt>
<wgt id='morphing_basis_vector_4'> +2.1191588e-04 </wgt>
<wgt id='morphing_basis_vector_5'> +3.4093567e-04 </wgt>
</rwgt>
</event>
<event>
 4      1 +7.8865000e-07 1.20996300e+03 7.81860800e-03 8.50660600e-02
        2 -1    0    0  501    0 +0.0000000000e+00 +0.0000000000e+00 +3.5168952981e+02 3.5168952981e+02 0.0000000000e+00 0.0000e+00 1.0000e+00
       -2 -1    0    0    0  501 -0.0000000000e+00 -0.0000000000e+00 -1.0406984992e+03 1.0406984992e+03 0.0000000000e+00 0.0000e+00 -1.0000e+00
      -13  1    1    2    0    0 -3.3606101196e+02 -4.2013516802e+02 -2.6108965517e+01 5.3863924963e+02 0.0000000000e+00 0.0000e+00 -1.0000e+00
       13  1    1    2    0    0 +3.3606101196e+02 +4.2013516802e+02 -6.6290000391e+02 8.5374877941e+02 0.0000000000e+00 0.0000e+00 1.0000e+00
<mgrwt>
<rscale>  0 0.12099632E+04</rscale>
<asrwt>0</asrwt>
<pdfrwt beam="1">  1        2 0.54106083E-01 0.12099632E+04</pdfrwt>
<pdfrwt beam="2">  1       -2 0.16010746E+00 0.12099632E+04</pdfrwt>
<totfact> 0.26258052E+01</totfact>
</mgrwt>
<rwgt>
<wgt id='morphing_basis_vector_1'> +2.9473566e-04 </wgt>
<wgt id='morphing_basis_vector_2'> +2.8576302e-04 </wgt>
<wgt id='morphing_basis_vector_3'> +3.0134559e-04 </wgt>
<wgt id='morphing_basis_vector_4'> +9.4149794e-05 </wgt>
<wgt id='morphing_basis_vector_5'> +2.5689930e-04 </wgt>
</rwgt>
</event>
<event>
 4      1 +7.8865000e-07 1.17034700e+03 7.81860800e-03 8.53713200e-02
        2 -1    0    0  501    0 +0.0000000000e+00 +0.0000000000e+00 +1.0284896913e+03 1.0284896913e+03 0.0000000000e+00 0.0000e+00 -1.0000e+00
       -2 -1    0    0    0  501 -0.0000000000e+00 -0.0000000000e+00 -3.3294264226e+02 3.3294264226e+02 0.0000000000e+00 0.0000e+00 1.0000e+00
      -13  1    1    2    0    0 +1.7670200286e+02 -2.1188418675e+02 -2.5253535660e+02 3.7402220889e+02 0.0000000000e+00 0.0000e+00 1.0000e+00
       13  1    1    2    0    0 -1.7670200286e+02 +2.1188418675e+02 +9.4808240560e+02 9.8741012463e+02 0.0000000000e+00 0.0000e+00 -1.0000e+00
<mgrwt>
<rscale>  0 0.11703471E+04</rscale>
<asrwt>0</asrwt>
<pdfrwt beam="1">  1        2 0.15822918E+00 0.11703471E+04</pdfrwt>
<pdfrwt beam="2">  1       -2 0.51221945E-01 0.11703471E+04</pdfrwt>
<totfact> 0.10718046E+02</totfact>
</mgrwt>
<rwgt>
<wgt id='morphing_basis_vector_1'> +2.2373952e-04 </wgt>
<wgt id='morphing_basis_vector_2'> +1.4288024e-04 </wgt>
<wgt id='morphing_basis_vector_3'> +2.2309641e-04 </wgt>
<wgt id='morphing_basis_vector_4'> +1.4315033e-04 </wgt>
<wgt id='morphing_basis_vector_5'> +2.2728381e-04 </wgt>
</rwgt>
</event>
<event>
 4      1 +7.8865000e-07 1.20721600e+03 7.81860800e-03 8.50868300e-02
        2 -1    0    0  501    0 +0.0000000000e+00 +0.0000000000e+00 +1.5434847845e+03 1.5434847845e+03 0.0000000000e+00 0.0000e+00 -1.0000e+00
       -2 -1    0    0    0  501 -0.0000000000e+00 -0.0000000000e+00 -2.3605180757e+02 2.3605180757e+02 0.0000000000e+00 0.0000e+00 1.0000e+00
      -13  1    1    2    0    0 -1.0111124476e+02 -4.3753519911e+02 +5.9162054618e+01 4.5294666682e+02 0.0000000000e+00 0.0000e+00 1.0000e+00
       13  1    1    2    0    0 +1.0111124476e+02 +4.3753519911e+02 +1.2482709223e+03 1.3265899252e+03 0.0000000000e+00 0.0000e+00 -1.0000e+00
<mgrwt>
<rscale>  0 0.12072156E+04</rscale>
<asrwt>0</asrwt>
<pdfrwt beam="1">  1        2 0.23745919E+00 0.12072156E+04</pdfrwt>
<pdfrwt beam="2">  1       -2 0.36315664E-01 0.12072156E+04</pdfrwt>
<totfact> 0.10353797E+02</totfact>
</mgrwt>
<rwgt>
<wgt id='morphing_basis_vector_1'> +2.5192207e-04 </wgt>
<wgt id='morphing_basis_vector_2'> +1.6229236e-04 </wgt>
<wgt id='morphing_basis_vector_3'> +2.5275169e-04 </wgt>
<wgt id='morphing_basis_vector_4'> +1.6257189e-04 </wgt>
<wgt id='morphing_basis_vector_5'> +2.5916316e-04 </wgt>
</rwgt>
</event>
<event>
 4      1 +7.8865000e-07 1.22486800e+03 7.81860800e-03 8.49543800e-02
        2 -1    0    0  501    0 +0.0000000000e+00 +0.0000000000e+00 +1.4715676359e+03 1.4715676359e+03 0.0000000000e+00 0.0000e+00 -1.0000e+00
       -2 -1    0    0    0  501 -0.0000000000e+00 -0.0000000000e+00 -2.5488136533e+02 2.5488136533e+02 0.0000000000e+00 0.0000e+00 1.0000e+00
      -13  1    1    2    0    0 +3.6644978868e+02 -3.6049370166e+02 +1.3909654198e+02 5.3253075456e+02 0.0000000000e+00 0.0000e+00 1.0000e+00
       13  1    1    2    0    0 -3.6644978868e+02 +3.6049370166e+02 +1.0775897286e+03 1.1939182467e+03 0.0000000000e+00 0.0000e+00 -1.0000e+00
<mgrwt>
<rscale>  0 0.12248676E+04</rscale>
<asrwt>0</asrwt>
<pdfrwt beam="1">  1        2 0.22639502E+00 0.12248676E+04</pdfrwt>
<pdfrwt beam="2">  1       -2 0.39212519E-01 0.12248676E+04</pdfrwt>
<totfact> 0.98429842E+01</totfact>
</mgrwt>
<rwgt>
<wgt id='morphing_basis_vector_1'> +2.6666762e-04 </wgt>
<wgt id='morphing_basis_vector_2'> +1.7324900e-04 </wgt>
<wgt id='morphing_basis_vector_3'> +2.6834269e-04 </wgt>
<wgt id='morphing_basis_vector_4'> +1.7195453e-04 </wgt>
<wgt id='morphing_basis_vector_5'> +2.7549918e-04 </wgt>
</rwgt>
</event>
<event>
 4      1 +7.8865000e-07 1.09615900e+03 7.81860800e-03 8.59786500e-02
        2 -1    0    0  501    0 +0.0000000000e+00 +0.0000000000e+00 +1.1097083145e+03 1.1097083145e+03 0.0000000000e+00 0.0000e+00 -1.0000e+00
       -2 -1    0    0    0  501 -0.0000000000e+00 -0.0000000000e+00 -2.7069398060e+02 2.7069398060e+02 0.0000000000e+00 0.0000e+00 1.0000e+00
      -13  1    1    2    0    0 +3.1413690360e+02 -7.3328357501e+01 -1.3848468298e+02 3.5105134900e+02 0.0000000000e+00 0.0000e+00 1.0000e+00
       13  1    1    2    0    0 -3.1413690360e+02 +7.3328357501e+01 +9.7749901691e+02 1.0293509461e+03 0.0000000000e+00 0.0000e+00 -1.0000e+00
<mgrwt>
<rscale>  0 0.10961594E+04</rscale>
<asrwt>0</asrwt>
<pdfrwt beam="1">  1        2 0.17072435E+00 0.10961594E+04</pdfrwt>
<pdfrwt beam="2">  1       -2 0.41645228E-01 0.10961594E+04</pdfrwt>
<totfact> 0.14330301E+02</totfact>
</mgrwt>
<rwgt>
<wgt id='morphing_basis_vector_1'> +1.7497730e-04 </wgt>
<wgt id='morphing_basis_vector_2'> +1.1096397e-04 </wgt>
<wgt id='morphing_basis_vector_3'> +1.7209969e-04 </wgt>
<wgt id='morphing_basis_vector_4'> +1.0831397e-04 </wgt>
<wgt id='morphing_basis_vector_5'> +1.7191500e-04 </wgt>
</rwgt>
</event>
<event>
 4      1 +7.8865000e-07 1.12900600e+03 7.81860800e-03 8.57037600e-02
        2 -1    0    0  501    0 +0.0000000000e+00 +0.0000000000e+00 +5.9348036615e+02 5.9348036615e+02 0.0000000000e+00 0.0000e+00 -1.0000e+00
       -2 -1    0    0    0  501 -0.0000000000e+00 -0.0000000000e+00 -5.3694009540e+02 5.3694009540e+02 0.0000000000e+00 0.0000e+00 1.0000e+00
      -13  1    1    2    0    0 -3.8164960323e+02 +3.6119811262e+02 -1.7824767223e+02 5.5488082402e+02 0.0000000000e+00 0.0000e+00 1.0000e+00
       13  1    1    2    0    0 +3.8164960323e+02 -3.6119811262e+02 +2.3478794298e+02 5.7553963754e+02 0.0000000000e+00 0.0000e+00 -1.0000e+00
<mgrwt>
<rscale>  0 0.11290056E+04</rscale>
<asrwt>0</asrwt>
<pdfrwt beam="1">  1        2 0.91304672E-01 0.11290056E+04</pdfrwt>
<pdfrwt beam="2">  1       -2 0.82606169E-01 0.11290056E+04</pdfrwt>
<totfact> 0.79701140E+01</totfact>
</mgrwt>
<rwgt>
<wgt id='morphing_basis_vector_1'> +1.9702114e-04 </wgt>
<wgt id='morphing_basis_vector_2'> +1.2910889e-04 </wgt>
<wgt id='morphing_basis_vector_3'> +1.9514729e-04 </wgt>
<wgt id='morphing_basis_vector_4'> +1.2022307e-04 </wgt>
<wgt id='morphing_basis_vector_5'> +1.9486138e-04 </wgt>
</rwgt>
</event>
<event>
 4      1 +7.8865000e-07 1.11661200e+03 7.81860800e-03 8.58063500e-02
        2 -1    0    0  501    0 +0.0000000000e+00 +0.0000000000e+00 +1.8876013686e+03 1.8876013686e+03 0.0000000000e+00 0.0000e+00 1.0000e+00
       -2 -1    0    0    0  501 -0.0000000000e+00 -0.0000000000e+00 -1.6513302198e+02 1.6513302198e+02 0.0000000000e+00 0.0000e+00 -1.0000e+00
      -13  1    1    2    0    0 -7.8659077587e+01 -5.1614918655e+02 +4.9768435504e+02 7.2130919204e+02 0.0000000000e+00 0.0000e+00 -1.0000e+00
       13  1    1    2    0    0 +7.8659077587e+01 +5.1614918655e+02 +1.2247839916e+03 1.3314251985e+03 0.0000000000e+00 0.0000e+00 1.0000e+00
<mgrwt>
<rscale>  0 0.11166115E+04</rscale>
<asrwt>0</asrwt>
<pdfrwt beam="1">  1        2 0.29040020E+00 0.11166115E+04</pdfrwt>
<pdfrwt beam="2">  1       -2 0.25405082E-01 0.11166115E+04</pdfrwt>
<totfact> 0.12673806E+02</totfact>
</mgrwt>
<rwgt>
<wgt id='morphing_basis_vector_1'> +1.8910321e-04 </wgt>
<wgt id='morphing_basis_vector_2'> +1.2394764e-04 </wgt>
<wgt id='morphing_basis_vector_3'> +1.8685703e-04 </wgt>
<wgt id='morphing_basis_vector_4'> +1.1458080e-04 </wgt>
<wgt id='morphing_basis_vector_5'> +1.8588723e-04 </wgt>
</rwgt>
</event>
<event>
 4      1 +7.8865000e-07 1.14358900e+03 7.81860800e-03 8.55848000e-02
        2 -1    0    0  501    0 +0.0000000000e+00 +0.0000000000e+00 +1.5302431648e+03 1.5302431648e+03 0.0000000000e+00 0.0000e+00 -1.0000e+00
       -2 -1    0    0    0  501 -0.0000000000e+00 -0.0000000000e+00 -2.1365832168e+02 2.1365832168e+02 0.0000000000e+00 0.0000e+00 1.0000e+00
      -13  1    1    2    0    0 +1.3596358895e+02 -4.3791382374e+02 +1.3736508409e+02 4.7866875903e+02 0.0000000000e+00 0.0000e+00 1.0000e+00
       13  1    1    2    0    0 -1.3596358895e+02 +4.3791382374e+02 +1.1792197590e+03 1.2652327274e+03 0.0000000000e+00 0.0000e+00 -1.0000e+00
<mgrwt>
<rscale>  0 0.11435894E+04</rscale>
<asrwt>0</asrwt>
<pdfrwt beam="1">  1        2 0.23542202E+00 0.11435894E+04</pdfrwt>
<pdfrwt beam="2">  1       -2 0.32870512E-01 0.11435894E+04</pdfrwt>
<totfact> 0.12678375E+02</totfact>
</mgrwt>
<rwgt>
<wgt id='morphing_basis_vector_1'> +2.0555158e-04 </wgt>
<wgt id='morphing_basis_vector_2'> +1.3205222e-04 </wgt>
<wgt id='morphing_basis_vector_3'> +2.0404982e-04 </wgt>
<wgt id='morphing_basis_vector_4'> +1.2898006e-04 </wgt>
<wgt id='morphing_basis_vector_5'> +2.0594680e-04 </wgt>
</rwgt>
</event>
<event>
 4      1 +7.8865000e-07 1.07275700e+03 7.81860800e-03 8.61806300e-02
        2 -1    0    0  501    0 +0.0000000000e+00 +0.0000000000e+00 +3.7951748690e+02 3.7951748690e+02 0.0000000000e+00 0.0000e+00 1.0000e+00
       -2 -1    0    0    0  501 -0.0000000000e+00 -0.0000000000e+00 -7.5807350362e+02 7.5807350362e+02 0.0000000000e+00 0.0000e+00 -1.0000e+00
      -13  1    1    2    0    0 +2.3073955452e+01 +3.6226542369e+02 -6.0802752247e+02 7.0814272057e+02 0.0000000000e+00 0.0000e+00 -1.0000e+00
       13  1    1    2    0    0 -2.3073955452e+01 -3.6226542369e+02 +2.2947150574e+02 4.2944826995e+02 0.0000000000e+00 0.0000e+00 1.0000e+00
<mgrwt>
<rscale>  0 0.10727575E+04</rscale>
<asrwt>0</asrwt>
<pdfrwt beam="1">  1        2 0.58387306E-01 0.10727575E+04</pdfrwt>
<pdfrwt beam="2">  1       -2 0.11662669E+00 0.10727575E+04</pdfrwt>
<totfact> 0.58125980E+01</totfact>
</mgrwt>
<rwgt>
<wgt id='morphing_basis_vector_1'> +1.6149338e-04 </wgt>
<wgt id='morphing_basis_vector_2'> +1.0230491e-04 </wgt>
<wgt id='morphing_basis_vector_3'> +1.5806825e-04 </wgt>
<wgt id='morphing_basis_vector_4'> +9.8658419e-05 </wgt>
<wgt id='morphing_basis_vector_5'> +1.5671173e-04 </wgt>
</rwgt>
</event>
<event>
 4      1 +7.8865000e-07 1.21712200e+03 7.81860800e-03 8.50122100e-02
        2 -1    0    0  501    0 +0.0000000000e+00 +0.0000000000e+00 +1.9139714169e+03 1.9139714169e+03 0.0000000000e+00 0.0000e+00 -1.0000e+00
       -2 -1    0    0    0  501 -0.0000000000e+00 -0.0000000000e+00 -1.9349625099e+02 1.9349625099e+02 0.0000000000e+00 0.0000e+00 1.0000e+00
      -13  1    1    2    0    0 -4.1144627246e+02 -2.1816788001e+02 +1.8193107399e+02 4.9998417442e+02 0.0000000000e+00 0.0000e+00 1.0000e+00
       13  1    1    2    0    0 +4.1144627246e+02 +2.1816788001e+02 +1.5385440920e+03 1.6074834935e+03 0.0000000000e+00 0.0000e+00 -1.0000e+00
<mgrwt>
<rscale>  0 0.12171217E+04</rscale>
<asrwt>0</asrwt>
<pdfrwt beam="1">  1        2 0.29445713E+00 0.12171217E+04</pdfrwt>
<pdfrwt beam="2">  1       -2 0.29768655E-01 0.12171217E+04</pdfrwt>
<totfact> 0.92151307E+01</totfact>
</mgrwt>
<rwgt>
<wgt id='morphing_basis_vector_1'> +2.5991786e-04 </wgt>
<wgt id='morphing_basis_vector_2'> +1.6777437e-04 </wgt>
<wgt id='morphing_basis_vector_3'> +2.6118385e-04 </wgt>
<wgt id='morphing_basis_vector_4'> +1.6813657e-04 </wgt>
<wgt id='morphing_basis_vector_5'> +2.6826390e-04 </wgt>
</rwgt>
</event>
<event>
 4      1 +7.8865000e-07 1.26693400e+03 7.81860800e-03 8.46479700e-02
        2 -1    0    0  501    0 +0.0000000000e+00 +0.0000000000e+00 +1.8700602790e+03 1.8700602790e+03 0.0000000000e+00 0.0000e+00 -1.0000e+00
       -2 -1    0    0    0  501 -0.0000000000e+00 -0.0000000000e+00 -2.1458148964e+02 2.1458148964e+02 0.0000000000e+00 0.0000e+00 1.0000e+00
      -13  1    1    2    0    0 -5.0847708851e+02 -3.6296783820e+02 +6.5527805431e+02 9.0536397630e+02 0.0000000000e+00 0.0000e+00 1.0000e+00
       13  1    1    2    0    0 +5.0847708851e+02 +3.6296783820e+02 +1.0002007351e+03 1.1792777924e+03 0.0000000000e+00 0.0000e+00 -1.0000e+00
<mgrwt>
<rscale>  0 0.12669338E+04</rscale>
<asrwt>0</asrwt>
<pdfrwt beam="1">  1        2 0.28770157E+00 0.12669338E+04</pdfrwt>
<pdfrwt beam="2">  1       -2 0.33012538E-01 0.12669338E+04</pdfrwt>
<totfact> 0.80726567E+01</totfact>
</mgrwt>
<rwgt>
<wgt id='morphing_basis_vector_1'> +3.0799200e-04 </wgt>
<wgt id='morphing_basis_vector_2'> +2.1214171e-04 </wgt>
<wgt id='morphing_basis_vector_3'> +3.1262929e-04 </wgt>
<wgt id='morphing_basis_vector_4'> +1.8967706e-04 </wgt>
<wgt id='morphing_basis_vector_5'> +3.1704119e-04 </wgt>
</rwgt>
</event>
<event>
 4      1 +7.8865000e-07 1.07676100e+03 7.81860800e-03 8.61457000e-02
        2 -1    0    0  501    0 +0.0000000000e+00 +0.0000000000e+00 +2.0775156075e+03 2.0775156075e+03 0.0000000000e+00 0.0000e+00 -1.0000e+00
       -2 -1    0    0    0  501 -0.0000000000e+00 -0.0000000000e+00 -1.3951920647e+02 1.3951920647e+02 0.0000000000e+00 0.0000e+00 1.0000e+00
      -13  1    1    2    0    0 -3.9547252985e+02 -5.5531938843e+01 +2.2556168707e+02 4.5865062169e+02 0.0000000000e+00 0.0000e+00 1.0000e+00
       13  1    1    2    0    0 +3.9547252985e+02 +5.5531938843e+01 +1.7124347140e+03 1.7583841923e+03 0.0000000000e+00 0.0000e+00 -1.0000e+00
<mgrwt>
<rscale>  0 0.10767606E+04</rscale>
<asrwt>0</asrwt>
<pdfrwt beam="1">  1        2 0.31961776E+00 0.10767606E+04</pdfrwt>
<pdfrwt beam="2">  1       -2 0.21464495E-01 0.10767606E+04</pdfrwt>
<totfact> 0.13277207E+02</totfact>
</mgrwt>
<rwgt>
<wgt id='morphing_basis_vector_1'> +1.6385673e-04 </wgt>
<wgt id='morphing_basis_vector_2'> +1.0409644e-04 </wgt>
<wgt id='morphing_basis_vector_3'> +1.6052266e-04 </wgt>
<wgt id='morphing_basis_vector_4'> +1.0007625e-04 </wgt>
<wgt id='morphing_basis_vector_5'> +1.5922770e-04 </wgt>
</rwgt>
</event>
<event>
 4      1 +7.8865000e-07 1.13330900e+03 7.81860800e-03 8.56684600e-02
        2 -1    0    0  501    0 +0.0000000000e+00 +0.0000000000e+00 +1.3582881070e+03 1.3582881070e+03 0.0000000000e+00 0.0000e+00 -1.0000e+00
       -2 -1    0    0    0  501 -0.0000000000e+00 -0.0000000000e+00 -2.3639851829e+02 2.3639851829e+02 0.0000000000e+00 0.0000e+00 1.0000e+00
      -13  1    1    2    0    0 +4.0684078632e+02 -2.1026141104e+02 +9.1367314378e+01 4.6698744365e+02 0.0000000000e+00 0.0000e+00 1.0000e+00
       13  1    1    2    0    0 -4.0684078632e+02 +2.1026141104e+02 +1.0305222743e+03 1.1276991816e+03 0.0000000000e+00 0.0000e+00 -1.0000e+00
<mgrwt>
<rscale>  0 0.11333090E+04</rscale>
<asrwt>0</asrwt>
<pdfrwt beam="1">  1        2 0.20896740E+00 0.11333090E+04</pdfrwt>
<pdfrwt beam="2">  1       -2 0.36369004E-01 0.11333090E+04</pdfrwt>
<totfact> 0.13187475E+02</totfact>
</mgrwt>
<rwgt>
<wgt id='morphing_basis_vector_1'> +1.9871477e-04 </wgt>
<wgt id='morphing_basis_vector_2'> +1.2758409e-04 </wgt>
<wgt id='morphing_basis_vector_3'> +1.9689227e-04 </wgt>
<wgt id='morphing_basis_vector_4'> +1.2408687e-04 </wgt>
<wgt id='morphing_basis_vector_5'> +1.9817235e-04 </wgt>
</rwgt>
</event>
<event>
 4      1 +7.8865000e-07 1.13532000e+03 7.81860800e-03 8.56520200e-02
        2 -1    0    0  501    0 +0.0000000000e+00 +0.0000000000e+00 +2.4641183050e+02 2.4641183050e+02 0.0000000000e+00 0.0000e+00 -1.0000e+00
       -2 -1    0    0    0  501 -0.0000000000e+00 -0.0000000000e+00 -1.3077208824e+03 1.3077208824e+03 0.0000000000e+00 0.0000e+00 1.0000e+00
      -13  1    1    2    0    0 -5.0083958993e+02 -9.5587602249e+01 -1.8908706482e+02 5.4381173454e+02 0.0000000000e+00 0.0000e+00 1.0000e+00
       13  1    1    2    0    0 +5.0083958993e+02 +9.5587602249e+01 -8.7222198704e+02 1.0103209783e+03 0.0000000000e+00 0.0000e+00 -1.0000e+00
<mgrwt>
<rscale>  0 0.11353200E+04</rscale>
<asrwt>0</asrwt>
<pdfrwt beam="1">  1        2 0.37909513E-01 0.11353200E+04</pdfrwt>
<pdfrwt beam="2">  1       -2 0.20118782E+00 0.11353200E+04</pdfrwt>
<totfact> 0.19226023E+01</totfact>
</mgrwt>
<rwgt>
<wgt id='morphing_basis_vector_1'> +2.3011912e-04 </wgt>
<wgt id='morphing_basis_vector_2'> +2.1901476e-04 </wgt>
<wgt id='morphing_basis_vector_3'> +2.3064925e-04 </wgt>
<wgt id='morphing_basis_vector_4'> +7.4833438e-05 </wgt>
<wgt id='morphing_basis_vector_5'> +1.9637887e-04 </wgt>
</rwgt>
</event>
<event>
 4      1 +7.8865000e-07 1.08247300e+03 7.81860800e-03 8.60961400e-02
        2 -1    0    0  501    0 +0.0000000000e+00 +0.0000000000e+00 +7.1462868533e+02 7.1462868533e+02 0.0000000000e+00 0.0000e+00 -1.0000e+00
       -2 -1    0    0    0  501 -0.0000000000e+00 -0.0000000000e+00 -4.0991490653e+02 4.0991490653e+02 0.0000000000e+00 0.0000e+00 1.0000e+00
      -13  1    1    2    0    0 -2.6391377690e+02 -1.6447181768e+02 -3.0784457738e+02 4.3757255887e+02 0.0000000000e+00 0.0000e+00 1.0000e+00
       13  1    1    2    0    0 +2.6391377690e+02 +1.6447181768e+02 +6.1255835618e+02 6.8697103300e+02 0.0000000000e+00 0.0000e+00 -1.0000e+00
<mgrwt>
<rscale>  0 0.10824730E+04</rscale>
<asrwt>0</asrwt>
<pdfrwt beam="1">  1        2 0.10994287E+00 0.10824730E+04</pdfrwt>
<pdfrwt beam="2">  1       -2 0.63063832E-01 0.10824730E+04</pdfrwt>
<totfact> 0.11498013E+02</totfact>
</mgrwt>
<rwgt>
<wgt id='morphing_basis_vector_1'> +1.6693688e-04 </wgt>
<wgt id='morphing_basis_vector_2'> +1.0567228e-04 </wgt>
<wgt id='morphing_basis_vector_3'> +1.6372960e-04 </wgt>
<wgt id='morphing_basis_vector_4'> +1.0267391e-04 </wgt>
<wgt id='morphing_basis_vector_5'> +1.6290391e-04 </wgt>
</rwgt>
</event>
<event>
 4      1 +7.8865000e-07 1.07405800e+03 7.81860800e-03 8.61692700e-02
        2 -1    0    0  501    0 +0.0000000000e+00 +0.0000000000e+00 +7.7314016383e+02 7.7314016383e+02 0.0000000000e+00 0.0000e+00 1.0000e+00
       -2 -1    0    0    0  501 -0.0000000000e+00 -0.0000000000e+00 -3.7302426889e+02 3.7302426889e+02 0.0000000000e+00 0.0000e+00 -1.0000e+00
      -13  1    1    2    0    0 -4.5159074138e+02 +2.7205277992e+02 +3.0916240126e+02 6.1116961894e+02 0.0000000000e+00 0.0000e+00 1.0000e+00
       13  1    1    2    0    0 +4.5159074138e+02 -2.7205277992e+02 +9.0953493680e+01 5.3499481378e+02 0.0000000000e+00 0.0000e+00 -1.0000e+00
<mgrwt>
<rscale>  0 0.10740578E+04</rscale>
<asrwt>0</asrwt>
<pdfrwt beam="1">  1        2 0.11894464E+00 0.10740578E+04</pdfrwt>
<pdfrwt beam="2">  1       -2 0.57388349E-01 0.10740578E+04</pdfrwt>
<totfact> 0.12650192E+02</totfact>
</mgrwt>
<rwgt>
<wgt id='morphing_basis_vector_1'> +1.7337052e-04 </wgt>
<wgt id='morphing_basis_vector_2'> +1.3642168e-04 </wgt>
<wgt id='morphing_basis_vector_3'> +1.7014795e-04 </wgt>
<wgt id='morphing_basis_vector_4'> +8.1142570e-05 </wgt>
<wgt id='morphing_basis_vector_5'> +1.5638911e-04 </wgt>
</rwgt>
</event>
<event>
 4      1 +7.8865000e-07 1.10851800e+03 7.81860800e-03 8.58740800e-02
        2 -1    0    0  501    0 +0.0000000000e+00 +0.0000000000e+00 +1.2699848875e+03 1.2699848875e+03 0.0000000000e+00 0.0000e+00 -1.0000e+00
       -2 -1    0    0    0  501 -0.0000000000e+00 -0.0000000000e+00 -2.4189493851e+02 2.4189493851e+02 0.0000000000e+00 0.0000e+00 1.0000e+00
      -13  1    1    2    0    0 +3.2699421337e+02 -4.4568352083e+02 +5.6934334076e+02 7.9354322880e+02 0.0000000000e+00 0.0000e+00 1.0000e+00
       13  1    1    2    0    0 -3.2699421337e+02 +4.4568352083e+02 +4.5874660821e+02 7.1833659718e+02 0.0000000000e+00 0.0000e+00 -1.0000e+00
<mgrwt>
<rscale>  0 0.11085178E+04</rscale>
<asrwt>0</asrwt>
<pdfrwt beam="1">  1        2 0.19538229E+00 0.11085178E+04</pdfrwt>
<pdfrwt beam="2">  1       -2 0.37214607E-01 0.11085178E+04</pdfrwt>
<totfact> 0.14221864E+02</totfact>
</mgrwt>
<rwgt>
<wgt id='morphing_basis_vector_1'> +1.9090749e-04 </wgt>
<wgt id='morphing_basis_vector_2'> +1.4128288e-04 </wgt>
<wgt id='morphing_basis_vector_3'> +1.8877625e-04 </wgt>
<wgt id='morphing_basis_vector_4'> +9.9733148e-05 </wgt>
<wgt id='morphing_basis_vector_5'> +1.7946435e-04 </wgt>
</rwgt>
</event>
<event>
 4      1 +7.8865000e-07 1.08610700e+03 7.81860800e-03 8.60647700e-02
        2 -1    0    0  501    0 +0.0000000000e+00 +0.0000000000e+00 +2.2036412899e+02 2.2036412899e+02 0.0000000000e+00 0.0000e+00 -1.0000e+00
       -2 -1    0    0    0  501 -0.0000000000e+00 -0.0000000000e+00 -1.3382726099e+03 1.3382726099e+03 0.0000000000e+00 0.0000e+00 1.0000e+00
      -13  1    1    2    0    0 +1.9150479966e+02 -3.1695328840e+02 -1.1289736113e+03 1.1881560884e+03 0.0000000000e+00 0.0000e+00 1.0000e+00
       13  1    1    2    0    0 -1.9150479966e+02 +3.1695328840e+02 +1.1065130358e+01 3.7048065055e+02 0.0000000000e+00 0.0000e+00 -1.0000e+00
<mgrwt>
<rscale>  0 0.10861073E+04</rscale>
<asrwt>0</asrwt>
<pdfrwt beam="1">  1        2 0.33902173E-01 0.10861073E+04</pdfrwt>
<pdfrwt beam="2">  1       -2 0.20588810E+00 0.10861073E+04</pdfrwt>
<totfact> 0.20278678E+01</totfact>
</mgrwt>
<rwgt>
<wgt id='morphing_basis_vector_1'> +1.6913590e-04 </wgt>
<wgt id='morphing_basis_vector_2'> +1.0733641e-04 </wgt>
<wgt id='morphing_basis_vector_3'> +1.6601634e-04 </wgt>
<wgt id='morphing_basis_vector_4'> +1.0399988e-04 </wgt>
<wgt id='morphing_basis_vector_5'> +1.6525254e-04 </wgt>
</rwgt>
</event>
<event>
 4      1 +7.8865000e-07 1.23269000e+03 7.81860800e-03 8.48964400e-02
        2 -1    0    0  501    0 +0.0000000000e+00 +0.0000000000e+00 +1.0118299955e+03 1.0118299955e+03 0.0000000000e+00 0.0000e+00 -1.0000e+00
       -2 -1    0    0    0  501 -0.0000000000e+00 -0.0000000000e+00 -3.7543941279e+02 3.7543941279e+02 0.0000000000e+00 0.0000e+00 1.0000e+00
      -13  1    1    2    0    0 +5.6772455968e+02 -1.2079585685e+02 +5.5150372299e+02 8.0066170832e+02 0.0000000000e+00 0.0000e+00 1.0000e+00
       13  1    1    2    0    0 -5.6772455968e+02 +1.2079585685e+02 +8.4886859702e+01 5.8660769995e+02 0.0000000000e+00 0.0000e+00 -1.0000e+00
<mgrwt>
<rscale>  0 0.12326895E+04</rscale>
<asrwt>0</asrwt>
<pdfrwt beam="1">  1        2 0.15566615E+00 0.12326895E+04</pdfrwt>
<pdfrwt beam="2">  1       -2 0.57759910E-01 0.12326895E+04</pdfrwt>
<totfact> 0.85885149E+01</totfact>
</mgrwt>
<rwgt>
<wgt id='morphing_basis_vector_1'> +3.0291572e-04 </wgt>
<wgt id='morphing_basis_vector_2'> +2.6682009e-04 </wgt>
<wgt id='morphing_basis_vector_3'> +3.0961171e-04 </wgt>
<wgt id='morphing_basis_vector_4'> +1.2498205e-04 </wgt>
<wgt id='morphing_basis_vector_5'> +2.7945046e-04 </wgt>
</rwgt>
</event>
<event>
 4      1 +7.8865000e-07 1.27189100e+03 7.81860800e-03 8.46126900e-02
        2 -1    0    0  501    0 +0.0000000000e+00 +0.0000000000e+00 +1.1115197643e+03 1.1115197643e+03 0.0000000000e+00 0.0000e+00 1.0000e+00
       -2 -1    0    0    0  501 -0.0000000000e+00 -0.0000000000e+00 -3.6385000985e+02 3.6385000985e+02 0.0000000000e+00 0.0000e+00 -1.0000e+00
      -13  1    1    2    0    0 +3.9811804564e+02 -2.8411376467e+02 +8.4531833388e+02 9.7661747635e+02 0.0000000000e+00 0.0000e+00 1.0000e+00
       13  1    1    2    0    0 -3.9811804564e+02 +2.8411376467e+02 -9.7648579389e+01 4.9875229783e+02 0.0000000000e+00 0.0000e+00 -1.0000e+00
<mgrwt>
<rscale>  0 0.12718907E+04</rscale>
<asrwt>0</asrwt>
<pdfrwt beam="1">  1        2 0.17100304E+00 0.12718907E+04</pdfrwt>
<pdfrwt beam="2">  1       -2 0.55976925E-01 0.12718907E+04</pdfrwt>
<totfact> 0.79346413E+01</totfact>
</mgrwt>
<rwgt>
<wgt id='morphing_basis_vector_1'> +3.8477770e-04 </wgt>
<wgt id='morphing_basis_vector_2'> +4.3171956e-04 </wgt>
<wgt id='morphing_basis_vector_3'> +4.0303120e-04 </wgt>
<wgt id='morphing_basis_vector_4'> +6.5744393e-05 </wgt>
<wgt id='morphing_basis_vector_5'> +3.1342175e-04 </wgt>
</rwgt>
</event>
<event>
 4      1 +7.8865000e-07 1.15638700e+03 7.81860800e-03 8.54819400e-02
        2 -1    0    0  501    0 +0.0000000000e+00 +0.0000000000e+00 +1.0025757308e+03 1.0025757308e+03 0.0000000000e+00 0.0000e+00 1.0000e+00
       -2 -1    0    0    0  501 -0.0000000000e+00 -0.0000000000e+00 -3.3344872204e+02 3.3344872204e+02 0.0000000000e+00 0.0000e+00 -1.0000e+00
      -13  1    1    2    0    0 -7.0645433803e+01 -4.3745280316e+02 -9.4552858536e+01 4.5309598914e+02 0.0000000000e+00 0.0000e+00 -1.0000e+00
       13  1    1    2    0    0 +7.0645433803e+01 +4.3745280316e+02 +7.6367986728e+02 8.8292846369e+02 0.0000000000e+00 0.0000e+00 1.0000e+00
<mgrwt>
<rscale>  0 0.11563868E+04</rscale>
<asrwt>0</asrwt>
<pdfrwt beam="1">  1        2 0.15424242E+00 0.11563868E+04</pdfrwt>
<pdfrwt beam="2">  1       -2 0.51299804E-01 0.11563868E+04</pdfrwt>
<totfact> 0.11099108E+02</totfact>
</mgrwt>
<rwgt>
<wgt id='morphing_basis_vector_1'> +2.1421162e-04 </wgt>
<wgt id='morphing_basis_vector_2'> +1.3747680e-04 </wgt>
<wgt id='morphing_basis_vector_3'> +2.1312091e-04 </wgt>
<wgt id='morphing_basis_vector_4'> +1.3543801e-04 </wgt>
<wgt id='morphing_basis_vector_5'> +2.1594637e-04 </wgt>
</rwgt>
</event>
<event>
 4      1 +7.8865000e-07 1.23401000e+03 7.81860800e-03 8.48867000e-02
        2 -1    0    0  501    0 +0.0000000000e+00 +0.0000000000e+00 +5.0699572419e+02 5.0699572419e+02 0.0000000000e+00 0.0000e+00 -1.0000e+00
       -2 -1    0    0    0  501 -0.0000000000e+00 -0.0000000000e+00 -7.5088417665e+02 7.5088417665e+02 0.0000000000e+00 0.0000e+00 1.0000e+00
      -13  1    1    2    0    0 -1.0335383533e+02 +1.0373030980e+02 -7.3291551810e+02 7.4740026032e+02 0.0000000000e+00 0.0000e+00 1.0000e+00
       13  1    1    2    0    0 +1.0335383533e+02 -1.0373030980e+02 +4.8902706565e+02 5.1047964052e+02 0.0000000000e+00 0.0000e+00 -1.0000e+00
<mgrwt>
<rscale>  0 0.12340098E+04</rscale>
<asrwt>0</asrwt>
<pdfrwt beam="1">  1        2 0.77999342E-01 0.12340098E+04</pdfrwt>
<pdfrwt beam="2">  1       -2 0.11552064E+00 0.12340098E+04</pdfrwt>
<totfact> 0.42380575E+01</totfact>
</mgrwt>
<rwgt>
<wgt id='morphing_basis_vector_1'> +2.7335073e-04 </wgt>
<wgt id='morphing_basis_vector_2'> +1.7550925e-04 </wgt>
<wgt id='morphing_basis_vector_3'> +2.7530254e-04 </wgt>
<wgt id='morphing_basis_vector_4'> +1.7906351e-04 </wgt>
<wgt id='morphing_basis_vector_5'> +2.8439575e-04 </wgt>
</rwgt>
</event>
<event>
 4      1 +7.8865000e-07 1.15057400e+03 7.81860800e-03 8.55284800e-02
        2 -1    0    0  501    0 +0.0000000000e+00 +0.0000000000e+00 +1.1390772508e+03 1.1390772508e+03 0.0000000000e+00 0.0000e+00 1.0000e+00
       -2 -1    0    0    0  501 -0.0000000000e+00 -0.0000000000e+00 -2.9054674809e+02 2.9054674809e+02 0.0000000000e+00 0.0000e+00 -1.0000e+00
      -13  1    1    2    0    0 -4.2966014928e+02 +3.6189626818e+02 +2.7017919069e+02 6.2335667790e+02 0.0000000000e+00 0.0000e+00 -1.0000e+00
       13  1    1    2    0    0 +4.2966014928e+02 -3.6189626818e+02 +5.7835131205e+02 8.0626732102e+02 0.0000000000e+00 0.0000e+00 1.0000e+00
<mgrwt>
<rscale>  0 0.11505741E+04</rscale>
<asrwt>0</asrwt>
<pdfrwt beam="1">  1        2 0.17524265E+00 0.11505741E+04</pdfrwt>
<pdfrwt beam="2">  1       -2 0.44699500E-01 0.11505741E+04</pdfrwt>
<totfact> 0.11989652E+02</totfact>
</mgrwt>
<rwgt>
<wgt id='morphing_basis_vector_1'> +2.1312595e-04 </wgt>
<wgt id='morphing_basis_vector_2'> +1.4366357e-04 </wgt>
<wgt id='morphing_basis_vector_3'> +2.1210516e-04 </wgt>
<wgt id='morphing_basis_vector_4'> +1.2763306e-04 </wgt>
<wgt id='morphing_basis_vector_5'> +2.1104054e-04 </wgt>
</rwgt>
</event>
<event>
 4      1 +7.8865000e-07 1.12691400e+03 7.81860800e-03 8.57209800e-02
        2 -1    0    0  501    0 +0.0000000000e+00 +0.0000000000e+00 +1.0827464663e+03 1.0827464663e+03 0.0000000000e+00 0.0000e+00 -1.0000e+00
       -2 -1    0    0    0  501 -0.0000000000e+00 -0.0000000000e+00 -2.9322099743e+02 2.9322099743e+02 0.0000000000e+00 0.0000e+00 1.0000e+00
      -13  1    1    2    0    0 -8.8578644645e+01 -5.0290859376e+02 +1.0396681862e+02 5.2112602059e+02 0.0000000000e+00 0.0000e+00 1.0000e+00
       13  1    1    2    0    0 +8.8578644645e+01 +5.0290859376e+02 +6.8555865023e+02 8.5484144312e+02 0.0000000000e+00 0.0000e+00 -1.0000e+00
<mgrwt>
<rscale>  0 0.11269144E+04</rscale>
<asrwt>0</asrwt>
<pdfrwt beam="1">  1        2 0.16657638E+00 0.11269144E+04</pdfrwt>
<pdfrwt beam="2">  1       -2 0.45110923E-01 0.11269144E+04</pdfrwt>
<totfact> 0.12752774E+02</totfact>
</mgrwt>
<rwgt>
<wgt id='morphing_basis_vector_1'> +1.9527215e-04 </wgt>
<wgt id='morphing_basis_vector_2'> +1.2703557e-04 </wgt>
<wgt id='morphing_basis_vector_3'> +1.9330699e-04 </wgt>
<wgt id='morphing_basis_vector_4'> +1.1991441e-04 </wgt>
<wgt id='morphing_basis_vector_5'> +1.9336832e-04 </wgt>
</rwgt>
</event>
<event>
 4      1 +7.8865000e-07 1.19770600e+03 7.81860800e-03 8.51591700e-02
        2 -1    0    0  501    0 +0.0000000000e+00 +0.0000000000e+00 +8.7659546926e+02 8.7659546926e+02 0.0000000000e+00 0.0000e+00 1.0000e+00
       -2 -1    0    0    0  501 -0.0000000000e+00 -0.0000000000e+00 -4.0911108769e+02 4.0911108769e+02 0.0000000000e+00 0.0000e+00 -1.0000e+00
      -13  1    1    2    0    0 -5.3928439609e+02 -2.4896891033e+02 +1.5190607577e+02 6.1309757301e+02 0.0000000000e+00 0.0000e+00 -1.0000e+00
       13  1    1    2    0    0 +5.3928439609e+02 +2.4896891033e+02 +3.1557830580e+02 6.7260898394e+02 0.0000000000e+00 0.0000e+00 1.0000e+00
<mgrwt>
<rscale>  0 0.11977060E+04</rscale>
<asrwt>0</asrwt>
<pdfrwt beam="1">  1        2 0.13486084E+00 0.11977060E+04</pdfrwt>
<pdfrwt beam="2">  1       -2 0.62940168E-01 0.11977060E+04</pdfrwt>
<totfact> 0.88109614E+01</totfact>
</mgrwt>
<rwgt>
<wgt id='morphing_basis_vector_1'> +2.4960327e-04 </wgt>
<wgt id='morphing_basis_vector_2'> +1.7271597e-04 </wgt>
<wgt id='morphing_basis_vector_3'> +2.5070298e-04 </wgt>
<wgt id='morphing_basis_vector_4'> +1.4848127e-04 </wgt>
<wgt id='morphing_basis_vector_5'> +2.5004102e-04 </wgt>
</rwgt>
</event>
<event>
 4      1 +7.8865000e-07 1.10372000e+03 7.81860800e-03 8.59145100e-02
        2 -1    0    0  501    0 +0.0000000000e+00 +0.0000000000e+00 +1.1872983223e+03 1.1872983223e+03 0.0000000000e+00 0.0000e+00 -1.0000e+00
       -2 -1    0    0    0  501 -0.0000000000e+00 -0.0000000000e+00 -2.5650610804e+02 2.5650610804e+02 0.0000000000e+00 0.0000e+00 1.0000e+00
      -13  1    1    2    0    0 +1.9379050743e+02 -1.0662686000e+02 -1.9598448176e+02 2.9552320575e+02 0.0000000000e+00 0.0000e+00 1.0000e+00
       13  1    1    2    0    0 -1.9379050743e+02 +1.0662686000e+02 +1.1267766961e+03 1.1482812246e+03 0.0000000000e+00 0.0000e+00 -1.0000e+00
<mgrwt>
<rscale>  0 0.11037197E+04</rscale>
<asrwt>0</asrwt>
<pdfrwt beam="1">  1        2 0.18266128E+00 0.11037197E+04</pdfrwt>
<pdfrwt beam="2">  1       -2 0.39462479E-01 0.11037197E+04</pdfrwt>
<totfact> 0.14252399E+02</totfact>
</mgrwt>
<rwgt>
<wgt id='morphing_basis_vector_1'> +1.7947299e-04 </wgt>
<wgt id='morphing_basis_vector_2'> +1.1375732e-04 </wgt>
<wgt id='morphing_basis_vector_3'> +1.7678500e-04 </wgt>
<wgt id='morphing_basis_vector_4'> +1.1164260e-04 </wgt>
<wgt id='morphing_basis_vector_5'> +1.7705411e-04 </wgt>
</rwgt>
</event>
<event>
 4      1 +7.8865000e-07 1.16502500e+03 7.81860800e-03 8.54132900e-02
        2 -1    0    0  501    0 +0.0000000000e+00 +0.0000000000e+00 +1.5931259368e+03 1.5931259368e+03 0.0000000000e+00 0.0000e+00 -1.0000e+00
       -2 -1    0    0    0  501 -0.0000000000e+00 -0.0000000000e+00 -2.1299061156e+02 2.1299061156e+02 0.0000000000e+00 0.0000e+00 1.0000e+00
      -13  1    1    2    0    0 +5.1288791231e+02 -1.0500926639e+01 +2.6224456330e+02 5.7613929829e+02 0.0000000000e+00 0.0000e+00 1.0000e+00
       13  1    1    2    0    0 -5.1288791231e+02 +1.0500926639e+01 +1.1178907620e+03 1.2299772501e+03 0.0000000000e+00 0.0000e+00 -1.0000e+00
<mgrwt>
<rscale>  0 0.11650251E+04</rscale>
<asrwt>0</asrwt>
<pdfrwt beam="1">  1        2 0.24509629E+00 0.11650251E+04</pdfrwt>
<pdfrwt beam="2">  1       -2 0.32767787E-01 0.11650251E+04</pdfrwt>
<totfact> 0.11744926E+02</totfact>
</mgrwt>
<rwgt>
<wgt id='morphing_basis_vector_1'> +2.2099619e-04 </wgt>
<wgt id='morphing_basis_vector_2'> +1.4358805e-04 </wgt>
<wgt id='morphing_basis_vector_3'> +2.2027530e-04 </wgt>
<wgt id='morphing_basis_vector_4'> +1.3860621e-04 </wgt>
<wgt id='morphing_basis_vector_5'> +2.2280673e-04 </wgt>
</rwgt>
</event>
<event>
 4      1 +7.8865000e-07 1.15332300e+03 7.81860800e-03 8.55064300e-02
        2 -1    0    0  501    0 +0.0000000000e+00 +0.0000000000e+00 +9.5450799688e+02 9.5450799688e+02 0.0000000000e+00 0.0000e+00 1.0000e+00
       -2 -1    0    0    0  501 -0.0000000000e+00 -0.0000000000e+00 -3.4838726783e+02 3.4838726783e+02 0.0000000000e+00 0.0000e+00 -1.0000e+00
      -13  1    1    2    0    0 -1.7714190159e+02 +5.5333512360e+01 -3.1373012429e+02 3.6451013947e+02 0.0000000000e+00 0.0000e+00 -1.0000e+00
       13  1    1    2    0    0 +1.7714190159e+02 -5.5333512360e+01 +9.1985085333e+02 9.3838512524e+02 0.0000000000e+00 0.0000e+00 1.0000e+00
<mgrwt>
<rscale>  0 0.11533229E+04</rscale>
<asrwt>0</asrwt>
<pdfrwt beam="1">  1        2 0.14684738E+00 0.11533229E+04</pdfrwt>
<pdfrwt beam="2">  1       -2 0.53598042E-01 0.11533229E+04</pdfrwt>
<totfact> 0.10910504E+02</totfact>
</mgrwt>
<rwgt>
<wgt id='morphing_basis_vector_1'> +2.1168904e-04 </wgt>
<wgt id='morphing_basis_vector_2'> +1.3488635e-04 </wgt>
<wgt id='morphing_basis_vector_3'> +2.1045879e-04 </wgt>
<wgt id='morphing_basis_vector_4'> +1.3458446e-04 </wgt>
<wgt id='morphing_basis_vector_5'> +2.1356785e-04 </wgt>
</rwgt>
</event>
<event>
 4      1 +7.8865000e-07 1.26227700e+03 7.81860800e-03 8.46812700e-02
        2 -1    0    0  501    0 +0.0000000000e+00 +0.0000000000e+00 +2.5192204012e+03 2.5192204012e+03 0.0000000000e+00 0.0000e+00 1.0000e+00
       -2 -1    0    0    0  501 -0.0000000000e+00 -0.0000000000e+00 -1.5811869261e+02 1.5811869261e+02 0.0000000000e+00 0.0000e+00 -1.0000e+00
      -13  1    1    2    0    0 +1.3529708057e+02 +4.1036722729e+02 +2.1562963748e+03 2.1991636176e+03 0.0000000000e+00 0.0000e+00 1.0000e+00
       13  1    1    2    0    0 -1.3529708057e+02 -4.1036722729e+02 +2.0480533377e+02 4.7817547614e+02 0.0000000000e+00 0.0000e+00 -1.0000e+00
<mgrwt>
<rscale>  0 0.12622770E+04</rscale>
<asrwt>0</asrwt>
<pdfrwt beam="1">  1        2 0.38757234E+00 0.12622770E+04</pdfrwt>
<pdfrwt beam="2">  1       -2 0.24325954E-01 0.12622770E+04</pdfrwt>
<totfact> 0.58823190E+01</totfact>
</mgrwt>
<rwgt>
<wgt id='morphing_basis_vector_1'> +3.8740008e-04 </wgt>
<wgt id='morphing_basis_vector_2'> +4.6003460e-04 </wgt>
<wgt id='morphing_basis_vector_3'> +4.0665203e-04 </wgt>
<wgt id='morphing_basis_vector_4'> +3.9897838e-05 </wgt>
<wgt id='morphing_basis_vector_5'> +3.0195225e-04 </wgt>
</rwgt>
</event>
<event>
 4      1 +7.8865000e-07 1.13702600e+03 7.81860800e-03 8.56381000e-02
        2 -1    0    0  501    0 +0.0000000000e+00 +0.0000000000e+00 +6.3097737510e+02 6.3097737510e+02 0.0000000000e+00 0.0000e+00 -1.0000e+00
       -2 -1    0    0    0  501 -0.0000000000e+00 -0.0000000000e+00 -5.1223266015e+02 5.1223266015e+02 0.0000000000e+00 0.0000e+00 1.0000e+00
      -13  1    1    2    0    0 -1.8619375289e+02 +3.4931770873e+02 -3.5091091348e+02 5.2898907781e+02 0.0000000000e+00 0.0000e+00 1.0000e+00
       13  1    1    2    0    0 +1.8619375289e+02 -3.4931770873e+02 +4.6965562842e+02 6.1422095744e+02 0.0000000000e+00 0.0000e+00 -1.0000e+00
<mgrwt>
<rscale>  0 0.11370263E+04</rscale>
<asrwt>0</asrwt>
<pdfrwt beam="1">  1        2 0.97073443E-01 0.11370263E+04</pdfrwt>
<pdfrwt beam="2">  1       -2 0.78805024E-01 0.11370263E+04</pdfrwt>
<totfact> 0.82431563E+01</totfact>
</mgrwt>
<rwgt>
<wgt id='morphing_basis_vector_1'> +2.0085984e-04 </wgt>
<wgt id='morphing_basis_vector_2'> +1.2826301e-04 </wgt>
<wgt id='morphing_basis_vector_3'> +1.9912774e-04 </wgt>
<wgt id='morphing_basis_vector_4'> +1.2635231e-04 </wgt>
<wgt id='morphing_basis_vector_5'> +2.0099188e-04 </wgt>
</rwgt>
</event>
<event>
 4      1 +7.8865000e-07 1.15572100e+03 7.81860800e-03 8.54872500e-02
        2 -1    0    0  501    0 +0.0000000000e+00 +0.0000000000e+00 +1.0161159251e+03 1.0161159251e+03 0.0000000000e+00 0.0000e+00 -1.0000e+00
       -2 -1    0    0    0  501 -0.0000000000e+00 -0.0000000000e+00 -3.2862655547e+02 3.2862655547e+02 0.0000000000e+00 0.0000e+00 1.0000e+00
      -13  1    1    2    0    0 -3.0748727539e+02 -4.1456047754e+02 +4.1413706449e+01 5.1780682610e+02 0.0000000000e+00 0.0000e+00 1.0000e+00
       13  1    1    2    0    0 +3.0748727539e+02 +4.1456047754e+02 +6.4607566315e+02 8.2693565444e+02 0.0000000000e+00 0.0000e+00 -1.0000e+00
<mgrwt>
<rscale>  0 0.11557209E+04</rscale>
<asrwt>0</asrwt>
<pdfrwt beam="1">  1        2 0.15632553E+00 0.11557209E+04</pdfrwt>
<pdfrwt beam="2">  1       -2 0.50557932E-01 0.11557209E+04</pdfrwt>
<totfact> 0.11203856E+02</totfact>
</mgrwt>
<rwgt>
<wgt id='morphing_basis_vector_1'> +2.1455430e-04 </wgt>
<wgt id='morphing_basis_vector_2'> +1.3959747e-04 </wgt>
<wgt id='morphing_basis_vector_3'> +2.1351729e-04 </wgt>
<wgt id='morphing_basis_vector_4'> +1.3374857e-04 </wgt>
<wgt id='morphing_basis_vector_5'> +2.1532792e-04 </wgt>
</rwgt>
</event>
<event>
 4      1 +7.8865000e-07 1.20144200e+03 7.81860800e-03 8.51306700e-02
        2 -1    0    0  501    0 +0.0000000000e+00 +0.0000000000e+00 +5.3619100517e+02 5.3619100517e+02 0.0000000000e+00 0.0000e+00 -1.0000e+00
       -2 -1    0    0    0  501 -0.0000000000e+00 -0.0000000000e+00 -6.7301664978e+02 6.7301664978e+02 0.0000000000e+00 0.0000e+00 1.0000e+00
      -13  1    1    2    0    0 +1.4289657743e+01 +5.9185210841e+02 -1.7091593311e+02 6.1620237645e+02 0.0000000000e+00 0.0000e+00 1.0000e+00
       13  1    1    2    0    0 -1.4289657743e+01 -5.9185210841e+02 +3.4090288506e+01 5.9300527849e+02 0.0000000000e+00 0.0000e+00 -1.0000e+00
<mgrwt>
<rscale>  0 0.12014416E+04</rscale>
<asrwt>0</asrwt>
<pdfrwt beam="1">  1        2 0.82490925E-01 0.12014416E+04</pdfrwt>
<pdfrwt beam="2">  1       -2 0.10354102E+00 0.12014416E+04</pdfrwt>
<totfact> 0.52397741E+01</totfact>
</mgrwt>
<rwgt>
<wgt id='morphing_basis_vector_1'> +2.5172569e-04 </wgt>
<wgt id='morphing_basis_vector_2'> +1.7230652e-04 </wgt>
<wgt id='morphing_basis_vector_3'> +2.5289017e-04 </wgt>
<wgt id='morphing_basis_vector_4'> +1.5187835e-04 </wgt>
<wgt id='morphing_basis_vector_5'> +2.5345472e-04 </wgt>
</rwgt>
</event>
<event>
 4      1 +7.8865000e-07 1.25041200e+03 7.81860800e-03 8.47668000e-02
        2 -1    0    0  501    0 +0.0000000000e+00 +0.0000000000e+00 +5.3706165839e+02 5.3706165839e+02 0.0000000000e+00 0.0000e+00 1.0000e+00
       -2 -1    0    0    0  501 -0.0000000000e+00 -0.0000000000e+00 -7.2781733269e+02 7.2781733269e+02 0.0000000000e+00 0.0000e+00 -1.0000e+00
      -13  1    1    2    0    0 +4.0286970515e+02 -2.8864356643e+02 -4.8092208434e+02 6.9058320207e+02 0.0000000000e+00 0.0000e+00 -1.0000e+00
       13  1    1    2    0    0 -4.0286970515e+02 +2.8864356643e+02 +2.9016641004e+02 5.7429578902e+02 0.0000000000e+00 0.0000e+00 1.0000e+00
<mgrwt>
<rscale>  0 0.12504124E+04</rscale>
<asrwt>0</asrwt>
<pdfrwt beam="1">  1        2 0.82624871E-01 0.12504124E+04</pdfrwt>
<pdfrwt beam="2">  1       -2 0.11197190E+00 0.12504124E+04</pdfrwt>
<totfact> 0.42883933E+01</totfact>
</mgrwt>
<rwgt>
<wgt id='morphing_basis_vector_1'> +2.8807599e-04 </wgt>
<wgt id='morphing_basis_vector_2'> +1.8680532e-04 </wgt>
<wgt id='morphing_basis_vector_3'> +2.9092405e-04 </wgt>
<wgt id='morphing_basis_vector_4'> +1.8811314e-04 </wgt>
<wgt id='morphing_basis_vector_5'> +3.0059599e-04 </wgt>
</rwgt>
</event>
<event>
 4      1 +7.8865000e-07 1.19128200e+03 7.81860800e-03 8.52084500e-02
        2 -1    0    0  501    0 +0.0000000000e+00 +0.0000000000e+00 +3.9510072831e+02 3.9510072831e+02 0.0000000000e+00 0.0000e+00 -1.0000e+00
       -2 -1    0    0    0  501 -0.0000000000e+00 -0.0000000000e+00 -8.9796837216e+02 8.9796837216e+02 0.0000000000e+00 0.0000e+00 1.0000e+00
      -13  1    1    2    0    0 +2.1423035853e+02 -2.1570706006e+02 -8.0741391108e+02 8.6275222751e+02 0.0000000000e+00 0.0000e+00 1.0000e+00
       13  1    1    2    0    0 -2.1423035853e+02 +2.1570706006e+02 +3.0454626723e+02 4.3031687296e+02 0.0000000000e+00 0.0000e+00 -1.0000e+00
<mgrwt>
<rscale>  0 0.11912816E+04</rscale>
<asrwt>0</asrwt>
<pdfrwt beam="1">  1        2 0.60784728E-01 0.11912816E+04</pdfrwt>
<pdfrwt beam="2">  1       -2 0.13814898E+00 0.11912816E+04</pdfrwt>
<totfact> 0.35099976E+01</totfact>
</mgrwt>
<rwgt>
<wgt id='morphing_basis_vector_1'> +2.3924962e-04 </wgt>
<wgt id='morphing_basis_vector_2'> +1.5313757e-04 </wgt>
<wgt id='morphing_basis_vector_3'> +2.3938987e-04 </wgt>
<wgt id='morphing_basis_vector_4'> +1.5426057e-04 </wgt>
<wgt id='morphing_basis_vector_5'> +2.4502792e-04 </wgt>
</rwgt>
</event>
<event>
 4      1 +7.8865000e-07 1.14683600e+03 7.81860800e-03 8.55585700e-02
        2 -1    0    0  501    0 +0.0000000000e+00 +0.0000000000e+00 +1.3732833298e+03 1.3732833298e+03 0.0000000000e+00 0.0000e+00 -1.0000e+00
       -2 -1    0    0    0  501 -0.0000000000e+00 -0.0000000000e+00 -2.3943226937e+02 2.3943226937e+02 0.0000000000e+00 0.0000e+00 1.0000e+00
      -13  1    1    2    0    0 +2.6286550577e+02 -4.8622906369e+02 +3.5231359477e+02 6.5547070534e+02 0.0000000000e+00 0.0000e+00 1.0000e+00
       13  1    1    2    0    0 -2.6286550577e+02 +4.8622906369e+02 +7.8153746562e+02 9.5724489378e+02 0.0000000000e+00 0.0000e+00 -1.0000e+00
<mgrwt>
<rscale>  0 0.11468362E+04</rscale>
<asrwt>0</asrwt>
<pdfrwt beam="1">  1        2 0.21127435E+00 0.11468362E+04</pdfrwt>
<pdfrwt beam="2">  1       -2 0.36835735E-01 0.11468362E+04</pdfrwt>
<totfact> 0.12621201E+02</totfact>
</mgrwt>
<rwgt>
<wgt id='morphing_basis_vector_1'> +2.0991572e-04 </wgt>
<wgt id='morphing_basis_vector_2'> +1.4001210e-04 </wgt>
<wgt id='morphing_basis_vector_3'> +2.0870621e-04 </wgt>
<wgt id='morphing_basis_vector_4'> +1.2691756e-04 </wgt>
<wgt id='morphing_basis_vector_5'> +2.0820770e-04 </wgt>
</rwgt>
</event>
<event>
 4      1 +7.8865000e-07 1.14729500e+03 7.81860800e-03 8.55548700e-02
        2 -1    0    0  501    0 +0.0000000000e+00 +0.0000000000e+00 +5.2141013902e+02 5.2141013902e+02 0.0000000000e+00 0.0000e+00 -1.0000e+00
       -2 -1    0    0    0  501 -0.0000000000e+00 -0.0000000000e+00 -6.3111839348e+02 6.3111839348e+02 0.0000000000e+00 0.0000e+00 1.0000e+00
      -13  1    1    2    0    0 -1.6789746665e+02 +9.3664916629e+01 -5.9779044770e+02 6.2794593341e+02 0.0000000000e+00 0.0000e+00 1.0000e+00
       13  1    1    2    0    0 +1.6789746665e+02 -9.3664916629e+01 +4.8808219324e+02 5.2458259910e+02 0.0000000000e+00 0.0000e+00 -1.0000e+00
<mgrwt>
<rscale>  0 0.11472951E+04</rscale>
<asrwt>0</asrwt>
<pdfrwt beam="1">  1        2 0.80216945E-01 0.11472951E+04</pdfrwt>
<pdfrwt beam="2">  1       -2 0.97095136E-01 0.11472951E+04</pdfrwt>
<totfact> 0.63466624E+01</totfact>
</mgrwt>
<rwgt>
<wgt id='morphing_basis_vector_1'> +2.0755440e-04 </wgt>
<wgt id='morphing_basis_vector_2'> +1.3217117e-04 </wgt>
<wgt id='morphing_basis_vector_3'> +2.0612801e-04 </wgt>
<wgt id='morphing_basis_vector_4'> +1.3162611e-04 </wgt>
<wgt id='morphing_basis_vector_5'> +2.0885943e-04 </wgt>
</rwgt>
</event>
<event>
 4      1 +7.8865000e-07 1.10561400e+03 7.81860800e-03 8.58985300e-02
        2 -1    0    0  501    0 +0.0000000000e+00 +0.0000000000e+00 +2.4960076937e+03 2.4960076937e+03 0.0000000000e+00 0.0000e+00 -1.0000e+00
       -2 -1    0    0    0  501 -0.0000000000e+00 -0.0000000000e+00 -1.2243365378e+02 1.2243365378e+02 0.0000000000e+00 0.0000e+00 1.0000e+00
      -13  1    1    2    0    0 -2.9672938700e+02 -3.7767973485e+02 +1.8349660587e+03 1.8967843177e+03 0.0000000000e+00 0.0000e+00 1.0000e+00
       13  1    1    2    0    0 +2.9672938700e+02 +3.7767973485e+02 +5.3860798122e+02 7.2165702980e+02 0.0000000000e+00 0.0000e+00 -1.0000e+00
<mgrwt>
<rscale>  0 0.11056136E+04</rscale>
<asrwt>0</asrwt>
<pdfrwt beam="1">  1        2 0.38400115E+00 0.11056136E+04</pdfrwt>
<pdfrwt beam="2">  1       -2 0.18835949E-01 0.11056136E+04</pdfrwt>
<totfact> 0.94822030E+01</totfact>
</mgrwt>
<rwgt>
<wgt id='morphing_basis_vector_1'> +2.1296126e-04 </wgt>
<wgt id='morphing_basis_vector_2'> +2.1196880e-04 </wgt>
<wgt id='morphing_basis_vector_3'> +2.1187039e-04 </wgt>
<wgt id='morphing_basis_vector_4'> +5.9279034e-05 </wgt>
<wgt id='morphing_basis_vector_5'> +1.7492423e-04 </wgt>
</rwgt>
</event>
<event>
 4      1 +7.8865000e-07 1.19174200e+03 7.81860800e-03 8.52049000e-02
        2 -1    0    0  501    0 +0.0000000000e+00 +0.0000000000e+00 +1.3528979802e+03 1.3528979802e+03 0.0000000000e+00 0.0000e+00 -1.0000e+00
       -2 -1    0    0    0  501 -0.0000000000e+00 -0.0000000000e+00 -2.6244580355e+02 2.6244580355e+02 0.0000000000e+00 0.0000e+00 1.0000e+00
      -13  1    1    2    0    0 +4.4847545671e+02 +1.7693011868e+02 +7.0571956458e+01 4.8725240195e+02 0.0000000000e+00 0.0000e+00 1.0000e+00
       13  1    1    2    0    0 -4.4847545671e+02 -1.7693011868e+02 +1.0198802202e+03 1.1280913818e+03 0.0000000000e+00 0.0000e+00 -1.0000e+00
<mgrwt>
<rscale>  0 0.11917422E+04</rscale>
<asrwt>0</asrwt>
<pdfrwt beam="1">  1        2 0.20813815E+00 0.11917422E+04</pdfrwt>
<pdfrwt beam="2">  1       -2 0.40376278E-01 0.11917422E+04</pdfrwt>
<totfact> 0.10897523E+02</totfact>
</mgrwt>
<rwgt>
<wgt id='morphing_basis_vector_1'> +2.4018658e-04 </wgt>
<wgt id='morphing_basis_vector_2'> +1.5513216e-04 </wgt>
<wgt id='morphing_basis_vector_3'> +2.4041814e-04 </wgt>
<wgt id='morphing_basis_vector_4'> +1.5350873e-04 </wgt>
<wgt id='morphing_basis_vector_5'> +2.4536169e-04 </wgt>
</rwgt>
</event>
<event>
 4      1 +7.8865000e-07 1.08443300e+03 7.81860800e-03 8.60792000e-02
        2 -1    0    0  501    0 +0.0000000000e+00 +0.0000000000e+00 +8.2932394402e+02 8.2932394402e+02 0.0000000000e+00 0.0000e+00 -1.0000e+00
       -2 -1    0    0    0  501 -0.0000000000e+00 -0.0000000000e+00 -3.5450430539e+02 3.5450430539e+02 0.0000000000e+00 0.0000e+00 1.0000e+00
      -13  1    1    2    0    0 +3.6798438633e+02 +3.6479980067e+02 +6.3060667283e+01 5.2198472287e+02 0.0000000000e+00 0.0000e+00 1.0000e+00
       13  1    1    2    0    0 -3.6798438633e+02 -3.6479980067e+02 +4.1175897134e+02 6.6184352655e+02 0.0000000000e+00 0.0000e+00 -1.0000e+00
<mgrwt>
<rscale>  0 0.10844333E+04</rscale>
<asrwt>0</asrwt>
<pdfrwt beam="1">  1        2 0.12758830E+00 0.10844333E+04</pdfrwt>
<pdfrwt beam="2">  1       -2 0.54539124E-01 0.10844333E+04</pdfrwt>
<totfact> 0.12798775E+02</totfact>
</mgrwt>
<rwgt>
<wgt id='morphing_basis_vector_1'> +1.6992678e-04 </wgt>
<wgt id='morphing_basis_vector_2'> +1.1201726e-04 </wgt>
<wgt id='morphing_basis_vector_3'> +1.6681433e-04 </wgt>
<wgt id='morphing_basis_vector_4'> +1.0044887e-04 </wgt>
<wgt id='morphing_basis_vector_5'> +1.6398054e-04 </wgt>
</rwgt>
</event>
<event>
 4      1 +7.8865000e-07 1.19906200e+03 7.81860800e-03 8.51488200e-02
        2 -1    0    0  501    0 +0.0000000000e+00 +0.0000000000e+00 +1.3634959391e+03 1.3634959391e+03 0.0000000000e+00 0.0000e+00 1.0000e+00
       -2 -1    0    0    0  501 -0.0000000000e+00 -0.0000000000e+00 -2.6361440139e+02 2.6361440139e+02 0.0000000000e+00 0.0000e+00 -1.0000e+00
      -13  1    1    2    0    0 +3.9457210865e+02 -3.6912098110e+02 +1.9738607706e+02 5.7523796035e+02 0.0000000000e+00 0.0000e+00 -1.0000e+00
       13  1    1    2    0    0 -3.9457210865e+02 +3.6912098110e+02 +9.0249546065e+02 1.0518723801e+03 0.0000000000e+00 0.0000e+00 1.0000e+00
<mgrwt>
<rscale>  0 0.11990616E+04</rscale>
<asrwt>0</asrwt>
<pdfrwt beam="1">  1        2 0.20976860E+00 0.11990616E+04</pdfrwt>
<pdfrwt beam="2">  1       -2 0.40556063E-01 0.11990616E+04</pdfrwt>
<totfact> 0.10653151E+02</totfact>
</mgrwt>
<rwgt>
<wgt id='morphing_basis_vector_1'> +2.4666356e-04 </wgt>
<wgt id='morphing_basis_vector_2'> +1.6142980e-04 </wgt>
<wgt id='morphing_basis_vector_3'> +2.4730222e-04 </wgt>
<wgt id='morphing_basis_vector_4'> +1.5606867e-04 </wgt>
<wgt id='morphing_basis_vector_5'> +2.5170697e-04 </wgt>
</rwgt>
</event>
<event>
 4      1 +7.8865000e-07 1.15648500e+03 7.81860800e-03 8.54811500e-02
        2 -1    0    0  501    0 +0.0000000000e+00 +0.0000000000e+00 +5.7980438295e+02 5.7980438295e+02 0.0000000000e+00 0.0000e+00 -1.0000e+00
       -2 -1    0    0    0  501 -0.0000000000e+00 -0.0000000000e+00 -5.7668477033e+02 5.7668477033e+02 0.0000000000e+00 0.0000e+00 1.0000e+00
      -13  1    1    2    0    0 -3.9757082828e+02 -4.1411188744e+02 -6.7817233304e+01 5.7805743309e+02 0.0000000000e+00 0.0000e+00 1.0000e+00
       13  1    1    2    0    0 +3.9757082828e+02 +4.1411188744e+02 +7.0936845918e+01 5.7843172019e+02 0.0000000000e+00 0.0000e+00 -1.0000e+00
<mgrwt>
<rscale>  0 0.11564849E+04</rscale>
<asrwt>0</asrwt>
<pdfrwt beam="1">  1        2 0.89200674E-01 0.11564849E+04</pdfrwt>
<pdfrwt beam="2">  1       -2 0.88720734E-01 0.11564849E+04</pdfrwt>
<totfact> 0.69328671E+01</totfact>
</mgrwt>
<rwgt>
<wgt id='morphing_basis_vector_1'> +2.1881884e-04 </wgt>
<wgt id='morphing_basis_vector_2'> +1.5117646e-04 </wgt>
<wgt id='morphing_basis_vector_3'> +2.1816344e-04 </wgt>
<wgt id='morphing_basis_vector_4'> +1.2783940e-04 </wgt>
<wgt id='morphing_basis_vector_5'> +2.1551634e-04 </wgt>
</rwgt>
</event>
<event>
 4      1 +7.8865000e-07 1.15588800e+03 7.81860800e-03 8.54859200e-02
        2 -1    0    0  501    0 +0.0000000000e+00 +0.0000000000e+00 +8.0291499877e+02 8.0291499877e+02 0.0000000000e+00 0.0000e+00 -1.0000e+00
       -2 -1    0    0    0  501 -0.0000000000e+00 -0.0000000000e+00 -4.1600839610e+02 4.1600839610e+02 0.0000000000e+00 0.0000e+00 1.0000e+00
      -13  1    1    2    0    0 -6.9284748329e+01 -3.3177720030e+02 -3.0020253937e+02 4.5276710529e+02 0.0000000000e+00 0.0000e+00 1.0000e+00
       13  1    1    2    0    0 +6.9284748329e+01 +3.3177720030e+02 +6.8710914204e+02 7.6615628958e+02 0.0000000000e+00 0.0000e+00 -1.0000e+00
<mgrwt>
<rscale>  0 0.11558882E+04</rscale>
<asrwt>0</asrwt>
<pdfrwt beam="1">  1        2 0.12352538E+00 0.11558882E+04</pdfrwt>
<pdfrwt beam="2">  1       -2 0.64001292E-01 0.11558882E+04</pdfrwt>
<totfact> 0.95786086E+01</totfact>
</mgrwt>
<rwgt>
<wgt id='morphing_basis_vector_1'> +2.1355562e-04 </wgt>
<wgt id='morphing_basis_vector_2'> +1.3631928e-04 </wgt>
<wgt id='morphing_basis_vector_3'> +2.1241883e-04 </wgt>
<wgt id='morphing_basis_vector_4'> +1.3571005e-04 </wgt>
<wgt id='morphing_basis_vector_5'> +2.1558530e-04 </wgt>
</rwgt>
</event>
<event>
 4      1 +7.8865000e-07 1.16021500e+03 7.81860800e-03 8.54514400e-02
        2 -1    0    0  501    0 +0.0000000000e+00 +0.0000000000e+00 +1.9173254182e+03 1.9173254182e+03 0.0000000000e+00 0.0000e+00 1.0000e+00
       -2 -1    0    0    0  501 -0.0000000000e+00 -0.0000000000e+00 -1.7551779931e+02 1.7551779931e+02 0.0000000000e+00 0.0000e+00 -1.0000e+00
      -13  1    1    2    0    0 +2.0511198314e+01 -4.3242040677e+02 +1.5674681348e+03 1.6261501994e+03 0.0000000000e+00 0.0000e+00 1.0000e+00
       13  1    1    2    0    0 -2.0511198314e+01 +4.3242040677e+02 +1.7433948413e+02 4.6669301814e+02 0.0000000000e+00 0.0000e+00 -1.0000e+00
<mgrwt>
<rscale>  0 0.11602150E+04</rscale>
<asrwt>0</asrwt>
<pdfrwt beam="1">  1        2 0.29497313E+00 0.11602150E+04</pdfrwt>
<pdfrwt beam="2">  1       -2 0.27002740E-01 0.11602150E+04</pdfrwt>
<totfact> 0.10938952E+02</totfact>
</mgrwt>
<rwgt>
<wgt id='morphing_basis_vector_1'> +2.7456099e-04 </wgt>
<wgt id='morphing_basis_vector_2'> +3.1271067e-04 </wgt>
<wgt id='morphing_basis_vector_3'> +2.7927759e-04 </wgt>
<wgt id='morphing_basis_vector_4'> +4.0027898e-05 </wgt>
<wgt id='morphing_basis_vector_5'> +2.1252466e-04 </wgt>
</rwgt>
</event>
<event>
 4      1 +7.8865000e-07 1.11269200e+03 7.81860800e-03 8.58390700e-02
        2 -1    0    0  501    0 +0.0000000000e+00 +0.0000000000e+00 +5.6347435936e+02 5.6347435936e+02 0.0000000000e+00 0.0000e+00 -1.0000e+00
       -2 -1    0    0    0  501 -0.0000000000e+00 -0.0000000000e+00 -5.4930805472e+02 5.4930805472e+02 0.0000000000e+00 0.0000e+00 1.0000e+00
      -13  1    1    2    0    0 -9.9533942588e+01 -7.5865587254e+00 -5.4027870102e+02 5.4942300314e+02 0.0000000000e+00 0.0000e+00 1.0000e+00
       13  1    1    2    0    0 +9.9533942588e+01 +7.5865587254e+00 +5.5444500566e+02 5.6335941094e+02 0.0000000000e+00 0.0000e+00 -1.0000e+00
<mgrwt>
<rscale>  0 0.11126922E+04</rscale>
<asrwt>0</asrwt>
<pdfrwt beam="1">  1        2 0.86688363E-01 0.11126922E+04</pdfrwt>
<pdfrwt beam="2">  1       -2 0.84508932E-01 0.11126922E+04</pdfrwt>
<totfact> 0.80480916E+01</totfact>
</mgrwt>
<rwgt>
<wgt id='morphing_basis_vector_1'> +1.8498944e-04 </wgt>
<wgt id='morphing_basis_vector_2'> +1.1734225e-04 </wgt>
<wgt id='morphing_basis_vector_3'> +1.8253876e-04 </wgt>
<wgt id='morphing_basis_vector_4'> +1.1558067e-04 </wgt>
<wgt id='morphing_basis_vector_5'> +1.8329151e-04 </wgt>
</rwgt>
</event>
<event>
 4      1 +7.8865000e-07 1.14968600e+03 7.81860800e-03 8.55356200e-02
        2 -1    0    0  501    0 +0.0000000000e+00 +0.0000000000e+00 +1.3450830802e+03 1.3450830802e+03 0.0000000000e+00 0.0000e+00 -1.0000e+00
       -2 -1    0    0    0  501 -0.0000000000e+00 -0.0000000000e+00 -2.4566849444e+02 2.4566849444e+02 0.0000000000e+00 0.0000e+00 1.0000e+00
      -13  1    1    2    0    0 +3.8662795348e+02 -2.4454336030e+02 +6.8085503465e+01 4.6251298929e+02 0.0000000000e+00 0.0000e+00 1.0000e+00
       13  1    1    2    0    0 -3.8662795348e+02 +2.4454336030e+02 +1.0313290823e+03 1.1282385853e+03 0.0000000000e+00 0.0000e+00 -1.0000e+00
<mgrwt>
<rscale>  0 0.11496861E+04</rscale>
<asrwt>0</asrwt>
<pdfrwt beam="1">  1        2 0.20693585E+00 0.11496861E+04</pdfrwt>
<pdfrwt beam="2">  1       -2 0.37795154E-01 0.11496861E+04</pdfrwt>
<totfact> 0.12485640E+02</totfact>
</mgrwt>
<rwgt>
<wgt id='morphing_basis_vector_1'> +2.0968084e-04 </wgt>
<wgt id='morphing_basis_vector_2'> +1.3472928e-04 </wgt>
<wgt id='morphing_basis_vector_3'> +2.0837564e-04 </wgt>
<wgt id='morphing_basis_vector_4'> +1.3196416e-04 </wgt>
<wgt id='morphing_basis_vector_5'> +2.1066293e-04 </wgt>
</rwgt>
</event>
<event>
 4      1 +7.8865000e-07 1.26159700e+03 7.81860800e-03 8.46861500e-02
        2 -1    0    0  501    0 +0.0000000000e+00 +0.0000000000e+00 +1.0716937273e+03 1.0716937273e+03 0.0000000000e+00 0.0000e+00 1.0000e+00
       -2 -1    0    0    0  501 -0.0000000000e+00 -0.0000000000e+00 -3.7128771162e+02 3.7128771162e+02 0.0000000000e+00 0.0000e+00 -1.0000e+00
      -13  1    1    2    0    0 -4.6963110890e+02 -1.6662393195e+01 -1.3110113266e+02 4.8787141828e+02 0.0000000000e+00 0.0000e+00 -1.0000e+00
       13  1    1    2    0    0 +4.6963110890e+02 +1.6662393195e+01 +8.3150714834e+02 9.5511002064e+02 0.0000000000e+00 0.0000e+00 1.0000e+00
<mgrwt>
<rscale>  0 0.12615969E+04</rscale>
<asrwt>0</asrwt>
<pdfrwt beam="1">  1        2 0.16487596E+00 0.12615969E+04</pdfrwt>
<pdfrwt beam="2">  1       -2 0.57121187E-01 0.12615969E+04</pdfrwt>
<totfact> 0.80552390E+01</totfact>
</mgrwt>
<rwgt>
<wgt id='morphing_basis_vector_1'> +2.9777110e-04 </wgt>
<wgt id='morphing_basis_vector_2'> +1.9274614e-04 </wgt>
<wgt id='morphing_basis_vector_3'> +3.0115070e-04 </wgt>
<wgt id='morphing_basis_vector_4'> +1.9567260e-04 </wgt>
<wgt id='morphing_basis_vector_5'> +3.1210890e-04 </wgt>
</rwgt>
</event>
<event>
 4      1 +7.8865000e-07 1.26702800e+03 7.81860800e-03 8.46473000e-02
        2 -1    0    0  501    0 +0.0000000000e+00 +0.0000000000e+00 +1.7727451721e+03 1.7727451721e+03 0.0000000000e+00 0.0000e+00 1.0000e+00
       -2 -1    0    0    0  501 -0.0000000000e+00 -0.0000000000e+00 -2.2639476120e+02 2.2639476120e+02 0.0000000000e+00 0.0000e+00 -1.0000e+00
      -13  1    1    2    0    0 +1.7670305221e+02 -2.5474755826e+02 -9.8517281341e+01 3.2530899437e+02 0.0000000000e+00 0.0000e+00 -1.0000e+00
       13  1    1    2    0    0 -1.7670305221e+02 +2.5474755826e+02 +1.6448676922e+03 1.6738309389e+03 0.0000000000e+00 0.0000e+00 1.0000e+00
<mgrwt>
<rscale>  0 0.12670284E+04</rscale>
<asrwt>0</asrwt>
<pdfrwt beam="1">  1        2 0.27273002E+00 0.12670284E+04</pdfrwt>
<pdfrwt beam="2">  1       -2 0.34829964E-01 0.12670284E+04</pdfrwt>
<totfact> 0.82977715E+01</totfact>
</mgrwt>
<rwgt>
<wgt id='morphing_basis_vector_1'> +3.0225245e-04 </wgt>
<wgt id='morphing_basis_vector_2'> +1.9473608e-04 </wgt>
<wgt id='morphing_basis_vector_3'> +3.0583953e-04 </wgt>
<wgt id='morphing_basis_vector_4'> +1.9997848e-04 </wgt>
<wgt id='morphing_basis_vector_5'> +3.1785433e-04 </wgt>
</rwgt>
</event>
<event>
 4      1 +7.8865000e-07 1.08761500e+03 7.81860800e-03 8.60517900e-02
        2 -1    0    0  501    0 +0.0000000000e+00 +0.0000000000e+00 +1.3476536590e+03 1.3476536590e+03 0.0000000000e+00 0.0000e+00 -1.0000e+00
       -2 -1    0    0    0  501 -0.0000000000e+00 -0.0000000000e+00 -2.1943819249e+02 2.1943819249e+02 0.0000000000e+00 0.0000e+00 1.0000e+00
      -13  1    1    2    0    0 +2.8162506944e+02 -4.6364318224e+02 +5.0926061401e+02 7.4405917316e+02 0.0000000000e+00 0.0000e+00 1.0000e+00
       13  1    1    2    0    0 -2.8162506944e+02 +4.6364318224e+02 +6.1895485249e+02 8.2303267833e+02 0.0000000000e+00 0.0000e+00 -1.0000e+00
<mgrwt>
<rscale>  0 0.10876152E+04</rscale>
<asrwt>0</asrwt>
<pdfrwt beam="1">  1        2 0.20733133E+00 0.10876152E+04</pdfrwt>
<pdfrwt beam="2">  1       -2 0.33759723E-01 0.10876152E+04</pdfrwt>
<totfact> 0.15359215E+02</totfact>
</mgrwt>
<rwgt>
<wgt id='morphing_basis_vector_1'> +1.7457466e-04 </wgt>
<wgt id='morphing_basis_vector_2'> +1.2166607e-04 </wgt>
<wgt id='morphing_basis_vector_3'> +1.7162672e-04 </wgt>
<wgt id='morphing_basis_vector_4'> +9.7188112e-05 </wgt>
<wgt id='morphing_basis_vector_5'> +1.6576415e-04 </wgt>
</rwgt>
</event>
<event>
 4      1 +7.8865000e-07 1.08134100e+03 7.81860800e-03 8.61059400e-02
        2 -1    0    0  501    0 +0.0000000000e+00 +0.0000000000e+00 +9.3442070305e+02 9.3442070305e+02 0.0000000000e+00 0.0000e+00 -1.0000e+00
       -2 -1    0    0    0  501 -0.0000000000e+00 -0.0000000000e+00 -3.1284039543e+02 3.1284039543e+02 0.0000000000e+00 0.0000e+00 1.0000e+00
      -13  1    1    2    0    0 -3.8500935335e+02 -2.6936188858e+01 -1.2594586476e+02 4.0598044446e+02 0.0000000000e+00 0.0000e+00 1.0000e+00
       13  1    1    2    0    0 +3.8500935335e+02 +2.6936188858e+01 +7.4752617238e+02 8.4128065402e+02 0.0000000000e+00 0.0000e+00 -1.0000e+00
<mgrwt>
<rscale>  0 0.10813409E+04</rscale>
<asrwt>0</asrwt>
<pdfrwt beam="1">  1        2 0.14375703E+00 0.10813409E+04</pdfrwt>
<pdfrwt beam="2">  1       -2 0.48129292E-01 0.10813409E+04</pdfrwt>
<totfact> 0.13959081E+02</totfact>
</mgrwt>
<rwgt>
<wgt id='morphing_basis_vector_1'> +1.6642439e-04 </wgt>
<wgt id='morphing_basis_vector_2'> +1.0566468e-04 </wgt>
<wgt id='morphing_basis_vector_3'> +1.6319420e-04 </wgt>
<wgt id='morphing_basis_vector_4'> +1.0199047e-04 </wgt>
<wgt id='morphing_basis_vector_5'> +1.6215998e-04 </wgt>
</rwgt>
</event>
<event>
 4      1 +7.8865000e-07 1.08529700e+03 7.81860800e-03 8.60717500e-02
        2 -1    0    0  501    0 +0.0000000000e+00 +0.0000000000e+00 +2.1086898393e+02 2.1086898393e+02 0.0000000000e+00 0.0000e+00 -1.0000e+00
       -2 -1    0    0    0  501 -0.0000000000e+00 -0.0000000000e+00 -1.3964468621e+03 1.3964468621e+03 0.0000000000e+00 0.0000e+00 1.0000e+00
      -13  1    1    2    0    0 +5.1958207639e+02 +9.7237181568e+01 -4.1112292129e+02 6.6965861452e+02 0.0000000000e+00 0.0000e+00 1.0000e+00
       13  1    1    2    0    0 -5.1958207639e+02 -9.7237181568e+01 -7.7445495685e+02 9.3765723149e+02 0.0000000000e+00 0.0000e+00 -1.0000e+00
<mgrwt>
<rscale>  0 0.10852969E+04</rscale>
<asrwt>0</asrwt>
<pdfrwt beam="1">  1        2 0.32441382E-01 0.10852969E+04</pdfrwt>
<pdfrwt beam="2">  1       -2 0.21483798E+00 0.10852969E+04</pdfrwt>
<totfact> 0.18397550E+01</totfact>
</mgrwt>
<rwgt>
<wgt id='morphing_basis_vector_1'> +1.8173654e-04 </wgt>
<wgt id='morphing_basis_vector_2'> +1.4646015e-04 </wgt>
<wgt id='morphing_basis_vector_3'> +1.7895552e-04 </wgt>
<wgt id='morphing_basis_vector_4'> +8.2394098e-05 </wgt>
<wgt id='morphing_basis_vector_5'> +1.6336886e-04 </wgt>
</rwgt>
</event>
<event>
 4      1 +7.8865000e-07 1.23808000e+03 7.81860800e-03 8.48567700e-02
        2 -1    0    0  501    0 +0.0000000000e+00 +0.0000000000e+00 +2.0506178747e+03 2.0506178747e+03 0.0000000000e+00 0.0000e+00 -1.0000e+00
       -2 -1    0    0    0  501 -0.0000000000e+00 -0.0000000000e+00 -1.8687561463e+02 1.8687561463e+02 0.0000000000e+00 0.0000e+00 1.0000e+00
      -13  1    1    2    0    0 +4.2999240526e+02 -3.8588945862e+02 +5.3016874693e+02 7.8414478451e+02 0.0000000000e+00 0.0000e+00 1.0000e+00
       13  1    1    2    0    0 -4.2999240526e+02 +3.8588945862e+02 +1.3335735131e+03 1.4533487048e+03 0.0000000000e+00 0.0000e+00 -1.0000e+00
<mgrwt>
<rscale>  0 0.12380799E+04</rscale>
<asrwt>0</asrwt>
<pdfrwt beam="1">  1        2 0.31547966E+00 0.12380799E+04</pdfrwt>
<pdfrwt beam="2">  1       -2 0.28750096E-01 0.12380799E+04</pdfrwt>
<totfact> 0.82051279E+01</totfact>
</mgrwt>
<rwgt>
<wgt id='morphing_basis_vector_1'> +2.7919316e-04 </wgt>
<wgt id='morphing_basis_vector_2'> +1.8499504e-04 </wgt>
<wgt id='morphing_basis_vector_3'> +2.8172095e-04 </wgt>
<wgt id='morphing_basis_vector_4'> +1.7737550e-04 </wgt>
<wgt id='morphing_basis_vector_5'> +2.8808517e-04 </wgt>
</rwgt>
</event>
<event>
 4      1 +7.8865000e-07 1.07244200e+03 7.81860800e-03 8.61833900e-02
        2 -1    0    0  501    0 +0.0000000000e+00 +0.0000000000e+00 +3.6295354372e+02 3.6295354372e+02 0.0000000000e+00 0.0000e+00 1.0000e+00
       -2 -1    0    0    0  501 -0.0000000000e+00 -0.0000000000e+00 -7.9220263285e+02 7.9220263285e+02 0.0000000000e+00 0.0000e+00 -1.0000e+00
      -13  1    1    2    0    0 +6.6674381897e+01 -1.4368061884e+02 -7.6642833128e+02 7.8262505737e+02 0.0000000000e+00 0.0000e+00 -1.0000e+00
       13  1    1    2    0    0 -6.6674381897e+01 +1.4368061884e+02 +3.3717924215e+02 3.7253111919e+02 0.0000000000e+00 0.0000e+00 1.0000e+00
<mgrwt>
<rscale>  0 0.10724416E+04</rscale>
<asrwt>0</asrwt>
<pdfrwt beam="1">  1        2 0.55839007E-01 0.10724416E+04</pdfrwt>
<pdfrwt beam="2">  1       -2 0.12187733E+00 0.10724416E+04</pdfrwt>
<totfact> 0.54537425E+01</totfact>
</mgrwt>
<rwgt>
<wgt id='morphing_basis_vector_1'> +1.6117168e-04 </wgt>
<wgt id='morphing_basis_vector_2'> +1.0175303e-04 </wgt>
<wgt id='morphing_basis_vector_3'> +1.5773761e-04 </wgt>
<wgt id='morphing_basis_vector_4'> +9.8767481e-05 </wgt>
<wgt id='morphing_basis_vector_5'> +1.5652837e-04 </wgt>
</rwgt>
</event>
<event>
 4      1 +7.8865000e-07 1.18718800e+03 7.81860800e-03 8.52400200e-02
        2 -1    0    0  501    0 +0.0000000000e+00 +0.0000000000e+00 +2.3152206344e+03 2.3152206344e+03 0.0000000000e+00 0.0000e+00 -1.0000e+00
       -2 -1    0    0    0  501 -0.0000000000e+00 -0.0000000000e+00 -1.5219016695e+02 1.5219016695e+02 0.0000000000e+00 0.0000e+00 1.0000e+00
      -13  1    1    2    0    0 -4.0316980221e+02 +3.3863840090e+02 +5.1183082585e+02 7.3429738544e+02 0.0000000000e+00 0.0000e+00 1.0000e+00
       13  1    1    2    0    0 +4.0316980221e+02 -3.3863840090e+02 +1.6511996416e+03 1.7331134159e+03 0.0000000000e+00 0.0000e+00 -1.0000e+00
<mgrwt>
<rscale>  0 0.11871880E+04</rscale>
<asrwt>0</asrwt>
<pdfrwt beam="1">  1        2 0.35618776E+00 0.11871880E+04</pdfrwt>
<pdfrwt beam="2">  1       -2 0.23413874E-01 0.11871880E+04</pdfrwt>
<totfact> 0.83188279E+01</totfact>
</mgrwt>
<rwgt>
<wgt id='morphing_basis_vector_1'> +2.3736478e-04 </wgt>
<wgt id='morphing_basis_vector_2'> +1.5472798e-04 </wgt>
<wgt id='morphing_basis_vector_3'> +2.3749300e-04 </wgt>
<wgt id='morphing_basis_vector_4'> +1.4997289e-04 </wgt>
<wgt id='morphing_basis_vector_5'> +2.4134133e-04 </wgt>
</rwgt>
</event>
<event>
 4      1 +7.8865000e-07 1.14755200e+03 7.81860800e-03 8.55527900e-02
        2 -1    0    0  501    0 +0.0000000000e+00 +0.0000000000e+00 +1.6517883031e+03 1.6517883031e+03 0.0000000000e+00 0.0000e+00 1.0000e+00
       -2 -1    0    0    0  501 -0.0000000000e+00 -0.0000000000e+00 -1.9931072802e+02 1.9931072802e+02 0.0000000000e+00 0.0000e+00 -1.0000e+00
      -13  1    1    2    0    0 -5.1985798046e+02 +8.1640145967e+01 +3.5733338727e+02 6.3608535822e+02 0.0000000000e+00 0.0000e+00 -1.0000e+00
       13  1    1    2    0    0 +5.1985798046e+02 -8.1640145967e+01 +1.0951441878e+03 1.2150136729e+03 0.0000000000e+00 0.0000e+00 1.0000e+00
<mgrwt>
<rscale>  0 0.11475524E+04</rscale>
<asrwt>0</asrwt>
<pdfrwt beam="1">  1        2 0.25412127E+00 0.11475524E+04</pdfrwt>
<pdfrwt beam="2">  1       -2 0.30663190E-01 0.11475524E+04</pdfrwt>
<totfact> 0.12286025E+02</totfact>
</mgrwt>
<rwgt>
<wgt id='morphing_basis_vector_1'> +2.0922538e-04 </wgt>
<wgt id='morphing_basis_vector_2'> +1.3678759e-04 </wgt>
<wgt id='morphing_basis_vector_3'> +2.0793777e-04 </wgt>
<wgt id='morphing_basis_vector_4'> +1.2924114e-04 </wgt>
<wgt id='morphing_basis_vector_5'> +2.0889285e-04 </wgt>
</rwgt>
</event>
<event>
 4      1 +7.8865000e-07 1.07067200e+03 7.81860800e-03 8.61988900e-02
        2 -1    0    0  501    0 +0.0000000000e+00 +0.0000000000e+00 +2.1540439773e+03 2.1540439773e+03 0.0000000000e+00 0.0000e+00 1.0000e+00
       -2 -1    0    0    0  501 -0.0000000000e+00 -0.0000000000e+00 -1.3304485144e+02 1.3304485144e+02 0.0000000000e+00 0.0000e+00 -1.0000e+00
      -13  1    1    2    0    0 +4.3193892704e+02 +2.1408816087e+02 +1.5077144787e+03 1.5829112188e+03 0.0000000000e+00 0.0000e+00 1.0000e+00
       13  1    1    2    0    0 -4.3193892704e+02 -2.1408816087e+02 +5.1328464710e+02 7.0417760989e+02 0.0000000000e+00 0.0000e+00 -1.0000e+00
<mgrwt>
<rscale>  0 0.10706717E+04</rscale>
<asrwt>0</asrwt>
<pdfrwt beam="1">  1        2 0.33139136E+00 0.10706717E+04</pdfrwt>
<pdfrwt beam="2">  1       -2 0.20468440E-01 0.10706717E+04</pdfrwt>
<totfact> 0.13030219E+02</totfact>
</mgrwt>
<rwgt>
<wgt id='morphing_basis_vector_1'> +1.8435783e-04 </wgt>
<wgt id='morphing_basis_vector_2'> +1.7408130e-04 </wgt>
<wgt id='morphing_basis_vector_3'> +1.8117513e-04 </wgt>
<wgt id='morphing_basis_vector_4'> +5.9039258e-05 </wgt>
<wgt id='morphing_basis_vector_5'> +1.5295913e-04 </wgt>
</rwgt>
</event>
<event>
 4      1 +7.8865000e-07 1.11501100e+03 7.81860800e-03 8.58196900e-02
        2 -1    0    0  501    0 +0.0000000000e+00 +0.0000000000e+00 +8.3976072115e+02 8.3976072115e+02 0.0000000000e+00 0.0000e+00 -1.0000e+00
       -2 -1    0    0    0  501 -0.0000000000e+00 -0.0000000000e+00 -3.7012008826e+02 3.7012008826e+02 0.0000000000e+00 0.0000e+00 1.0000e+00
      -13  1    1    2    0    0 +7.1965856108e+01 +1.2472185618e+02 -3.4959373158e+02 3.7808782448e+02 0.0000000000e+00 0.0000e+00 1.0000e+00
       13  1    1    2    0    0 -7.1965856108e+01 -1.2472185618e+02 +8.1923436447e+02 8.3179298494e+02 0.0000000000e+00 0.0000e+00 -1.0000e+00
<mgrwt>
<rscale>  0 0.11150109E+04</rscale>
<asrwt>0</asrwt>
<pdfrwt beam="1">  1        2 0.12919396E+00 0.11150109E+04</pdfrwt>
<pdfrwt beam="2">  1       -2 0.56941552E-01 0.11150109E+04</pdfrwt>
<totfact> 0.11519119E+02</totfact>
</mgrwt>
<rwgt>
<wgt id='morphing_basis_vector_1'> +1.8644110e-04 </wgt>
<wgt id='morphing_basis_vector_2'> +1.1829824e-04 </wgt>
<wgt id='morphing_basis_vector_3'> +1.8405379e-04 </wgt>
<wgt id='morphing_basis_vector_4'> +1.1660610e-04 </wgt>
<wgt id='morphing_basis_vector_5'> +1.8492866e-04 </wgt>
</rwgt>
</event>
<event>
 4      1 +7.8865000e-07 1.09723000e+03 7.81860800e-03 8.59695400e-02
        2 -1    0    0  501    0 +0.0000000000e+00 +0.0000000000e+00 +2.0357974814e+02 2.0357974814e+02 0.0000000000e+00 0.0000e+00 -1.0000e+00
       -2 -1    0    0    0  501 -0.0000000000e+00 -0.0000000000e+00 -1.4784308086e+03 1.4784308086e+03 0.0000000000e+00 0.0000e+00 1.0000e+00
      -13  1    1    2    0    0 +3.3362856586e+02 +4.2676975676e+02 -7.7052080620e+02 9.4188256064e+02 0.0000000000e+00 0.0000e+00 1.0000e+00
       13  1    1    2    0    0 -3.3362856586e+02 -4.2676975676e+02 -5.0433025423e+02 7.4012799607e+02 0.0000000000e+00 0.0000e+00 -1.0000e+00
<mgrwt>
<rscale>  0 0.10972303E+04</rscale>
<asrwt>0</asrwt>
<pdfrwt beam="1">  1        2 0.31319962E-01 0.10972303E+04</pdfrwt>
<pdfrwt beam="2">  1       -2 0.22745089E+00 0.10972303E+04</pdfrwt>
<totfact> 0.15585703E+01</totfact>
</mgrwt>
<rwgt>
<wgt id='morphing_basis_vector_1'> +1.7903205e-04 </wgt>
<wgt id='morphing_basis_vector_2'> +1.2167816e-04 </wgt>
<wgt id='morphing_basis_vector_3'> +1.7631622e-04 </wgt>
<wgt id='morphing_basis_vector_4'> +1.0317425e-04 </wgt>
<wgt id='morphing_basis_vector_5'> +1.7227615e-04 </wgt>
</rwgt>
</event>
<event>
 4      1 +7.8865000e-07 1.12089600e+03 7.81860800e-03 8.57707300e-02
        2 -1    0    0  501    0 +0.0000000000e+00 +0.0000000000e+00 +1.7906865999e+03 1.7906865999e+03 0.0000000000e+00 0.0000e+00 1.0000e+00
       -2 -1    0    0    0  501 -0.0000000000e+00 -0.0000000000e+00 -1.7540864736e+02 1.7540864736e+02 0.0000000000e+00 0.0000e+00 -1.0000e+00
      -13  1    1    2    0    0 -9.7991171105e+01 -5.1364354157e+02 +4.5390553245e+02 6.9243208317e+02 0.0000000000e+00 0.0000e+00 -1.0000e+00
       13  1    1    2    0    0 +9.7991171105e+01 +5.1364354157e+02 +1.1613724201e+03 1.2736631641e+03 0.0000000000e+00 0.0000e+00 1.0000e+00
<mgrwt>
<rscale>  0 0.11208959E+04</rscale>
<asrwt>0</asrwt>
<pdfrwt beam="1">  1        2 0.27549023E+00 0.11208959E+04</pdfrwt>
<pdfrwt beam="2">  1       -2 0.26985947E-01 0.11208959E+04</pdfrwt>
<totfact> 0.12913241E+02</totfact>
</mgrwt>
<rwgt>
<wgt id='morphing_basis_vector_1'> +1.9179899e-04 </wgt>
<wgt id='morphing_basis_vector_2'> +1.2567394e-04 </wgt>
<wgt id='morphing_basis_vector_3'> +1.8967837e-04 </wgt>
<wgt id='morphing_basis_vector_4'> +1.1653043e-04 </wgt>
<wgt id='morphing_basis_vector_5'> +1.8895573e-04 </wgt>
</rwgt>
</event>
<event>
 4      1 +7.8865000e-07 1.19818900e+03 7.81860800e-03 8.51554800e-02
        2 -1    0    0  501    0 +0.0000000000e+00 +0.0000000000e+00 +1.3589514728e+03 1.3589514728e+03 0.0000000000e+00 0.0000e+00 -1.0000e+00
       -2 -1    0    0    0  501 -0.0000000000e+00 -0.0000000000e+00 -2.6411131535e+02 2.6411131535e+02 0.0000000000e+00 0.0000e+00 1.0000e+00
      -13  1    1    2    0    0 -5.9492651255e+02 -5.8157438233e+00 +4.5218240304e+02 7.4728863489e+02 0.0000000000e+00 0.0000e+00 1.0000e+00
       13  1    1    2    0    0 +5.9492651255e+02 +5.8157438233e+00 +6.4265775442e+02 8.7577415327e+02 0.0000000000e+00 0.0000e+00 -1.0000e+00
<mgrwt>
<rscale>  0 0.11981894E+04</rscale>
<asrwt>0</asrwt>
<pdfrwt beam="1">  1        2 0.20906945E+00 0.11981894E+04</pdfrwt>
<pdfrwt beam="2">  1       -2 0.40632511E-01 0.11981894E+04</pdfrwt>
<totfact> 0.10679430E+02</totfact>
</mgrwt>
<rwgt>
<wgt id='morphing_basis_vector_1'> +2.5019698e-04 </wgt>
<wgt id='morphing_basis_vector_2'> +1.7362489e-04 </wgt>
<wgt id='morphing_basis_vector_3'> +2.5134691e-04 </wgt>
<wgt id='morphing_basis_vector_4'> +1.4836994e-04 </wgt>
<wgt id='morphing_basis_vector_5'> +2.5044366e-04 </wgt>
</rwgt>
</event>
<event>
 4      1 +7.8865000e-07 1.18973200e+03 7.81860800e-03 8.52203900e-02
        2 -1    0    0  501    0 +0.0000000000e+00 +0.0000000000e+00 +5.1411846643e+02 5.1411846643e+02 0.0000000000e+00 0.0000e+00 1.0000e+00
       -2 -1    0    0    0  501 -0.0000000000e+00 -0.0000000000e+00 -6.8829540870e+02 6.8829540870e+02 0.0000000000e+00 0.0000e+00 -1.0000e+00
      -13  1    1    2    0    0 -5.1012059799e+01 +3.1173704554e+02 +4.2235135092e+02 5.2741148967e+02 0.0000000000e+00 0.0000e+00 1.0000e+00
       13  1    1    2    0    0 +5.1012059799e+01 -3.1173704554e+02 -5.9652829319e+02 6.7500238546e+02 0.0000000000e+00 0.0000e+00 -1.0000e+00
<mgrwt>
<rscale>  0 0.11897317E+04</rscale>
<asrwt>0</asrwt>
<pdfrwt beam="1">  1        2 0.79095149E-01 0.11897317E+04</pdfrwt>
<pdfrwt beam="2">  1       -2 0.10589160E+00 0.11897317E+04</pdfrwt>
<totfact> 0.52084555E+01</totfact>
</mgrwt>
<rwgt>
<wgt id='morphing_basis_vector_1'> +3.2041935e-04 </wgt>
<wgt id='morphing_basis_vector_2'> +3.9980306e-04 </wgt>
<wgt id='morphing_basis_vector_3'> +3.3065025e-04 </wgt>
<wgt id='morphing_basis_vector_4'> +1.2714242e-05 </wgt>
<wgt id='morphing_basis_vector_5'> +2.3418204e-04 </wgt>
</rwgt>
</event>
<event>
 4      1 +7.8865000e-07 1.07383700e+03 7.81860800e-03 8.61712000e-02
        2 -1    0    0  501    0 +0.0000000000e+00 +0.0000000000e+00 +1.5472224909e+03 1.5472224909e+03 0.0000000000e+00 0.0000e+00 -1.0000e+00
       -2 -1    0    0    0  501 -0.0000000000e+00 -0.0000000000e+00 -1.8632186727e+02 1.8632186727e+02 0.0000000000e+00 0.0000e+00 1.0000e+00
      -13  1    1    2    0    0 +5.0733522007e+02 +1.7113320165e+02 +7.4514079715e+02 9.1755675890e+02 0.0000000000e+00 0.0000e+00 1.0000e+00
       13  1    1    2    0    0 -5.0733522007e+02 -1.7113320165e+02 +6.1575982643e+02 8.1598759922e+02 0.0000000000e+00 0.0000e+00 -1.0000e+00
<mgrwt>
<rscale>  0 0.10738368E+04</rscale>
<asrwt>0</asrwt>
<pdfrwt beam="1">  1        2 0.23803422E+00 0.10738368E+04</pdfrwt>
<pdfrwt beam="2">  1       -2 0.28664904E-01 0.10738368E+04</pdfrwt>
<totfact> 0.15903954E+02</totfact>
</mgrwt>
<rwgt>
<wgt id='morphing_basis_vector_1'> +1.6953354e-04 </wgt>
<wgt id='morphing_basis_vector_2'> +1.2513600e-04 </wgt>
<wgt id='morphing_basis_vector_3'> +1.6624643e-04 </wgt>
<wgt id='morphing_basis_vector_4'> +8.7061913e-05 </wgt>
<wgt id='morphing_basis_vector_5'> +1.5662993e-04 </wgt>
</rwgt>
</event>
<event>
 4      1 +7.8865000e-07 1.24505600e+03 7.81860800e-03 8.48057400e-02
        2 -1    0    0  501    0 +0.0000000000e+00 +0.0000000000e+00 +1.7465961660e+03 1.7465961660e+03 0.0000000000e+00 0.0000e+00 -1.0000e+00
       -2 -1    0    0    0  501 -0.0000000000e+00 -0.0000000000e+00 -2.2188361359e+02 2.2188361359e+02 0.0000000000e+00 0.0000e+00 1.0000e+00
      -13  1    1    2    0    0 -2.4780559224e+01 -2.8377057446e+02 -1.1280353326e+02 3.0637306044e+02 0.0000000000e+00 0.0000e+00 1.0000e+00
       13  1    1    2    0    0 +2.4780559224e+01 +2.8377057446e+02 +1.6375160856e+03 1.6621067191e+03 0.0000000000e+00 0.0000e+00 -1.0000e+00
<mgrwt>
<rscale>  0 0.12450559E+04</rscale>
<asrwt>0</asrwt>
<pdfrwt beam="1">  1        2 0.26870709E+00 0.12450559E+04</pdfrwt>
<pdfrwt beam="2">  1       -2 0.34135942E-01 0.12450559E+04</pdfrwt>
<totfact> 0.89138052E+01</totfact>
</mgrwt>
<rwgt>
<wgt id='morphing_basis_vector_1'> +2.8279298e-04 </wgt>
<wgt id='morphing_basis_vector_2'> +1.8183168e-04 </wgt>
<wgt id='morphing_basis_vector_3'> +2.8527250e-04 </wgt>
<wgt id='morphing_basis_vector_4'> +1.8583729e-04 </wgt>
<wgt id='morphing_basis_vector_5'> +2.9528228e-04 </wgt>
</rwgt>
</event>
<event>
 4      1 +7.8865000e-07 1.24379700e+03 7.81860800e-03 8.48149300e-02
        2 -1    0    0  501    0 +0.0000000000e+00 +0.0000000000e+00 +9.0154618524e+02 9.0154618524e+02 0.0000000000e+00 0.0000e+00 1.0000e+00
       -2 -1    0    0    0  501 -0.0000000000e+00 -0.0000000000e+00 -4.2899382405e+02 4.2899382405e+02 0.0000000000e+00 0.0000e+00 -1.0000e+00
      -13  1    1    2    0    0 -3.7748514852e+02 +1.9685357005e+02 -2.4867315712e+02 4.9303621010e+02 0.0000000000e+00 0.0000e+00 -1.0000e+00
       13  1    1    2    0    0 +3.7748514852e+02 -1.9685357005e+02 +7.2122551831e+02 8.3750379919e+02 0.0000000000e+00 0.0000e+00 1.0000e+00
<mgrwt>
<rscale>  0 0.12437970E+04</rscale>
<asrwt>0</asrwt>
<pdfrwt beam="1">  1        2 0.13869941E+00 0.12437970E+04</pdfrwt>
<pdfrwt beam="2">  1       -2 0.65999050E-01 0.12437970E+04</pdfrwt>
<totfact> 0.76574324E+01</totfact>
</mgrwt>
<rwgt>
<wgt id='morphing_basis_vector_1'> +2.8194634e-04 </wgt>
<wgt id='morphing_basis_vector_2'> +1.8182814e-04 </wgt>
<wgt id='morphing_basis_vector_3'> +2.8440443e-04 </wgt>
<wgt id='morphing_basis_vector_4'> +1.8463409e-04 </wgt>
<wgt id='morphing_basis_vector_5'> +2.9399715e-04 </wgt>
</rwgt>
</event>
<event>
 4      1 +7.8865000e-07 1.15560300e+03 7.81860800e-03 8.54881900e-02
        2 -1    0    0  501    0 +0.0000000000e+00 +0.0000000000e+00 +8.9491796136e+02 8.9491796136e+02 0.0000000000e+00 0.0000e+00 -1.0000e+00
       -2 -1    0    0    0  501 -0.0000000000e+00 -0.0000000000e+00 -3.7305636289e+02 3.7305636289e+02 0.0000000000e+00 0.0000e+00 1.0000e+00
      -13  1    1    2    0    0 -1.3171713853e+02 +4.0797818019e+02 +6.8597392465e+02 8.0892263251e+02 0.0000000000e+00 0.0000e+00 1.0000e+00
       13  1    1    2    0    0 +1.3171713853e+02 -4.0797818019e+02 -1.6411232617e+02 4.5905169174e+02 0.0000000000e+00 0.0000e+00 -1.0000e+00
<mgrwt>
<rscale>  0 0.11556035E+04</rscale>
<asrwt>0</asrwt>
<pdfrwt beam="1">  1        2 0.13767969E+00 0.11556035E+04</pdfrwt>
<pdfrwt beam="2">  1       -2 0.57393287E-01 0.11556035E+04</pdfrwt>
<totfact> 0.10386662E+02</totfact>
</mgrwt>
<rwgt>
<wgt id='morphing_basis_vector_1'> +2.7099426e-04 </wgt>
<wgt id='morphing_basis_vector_2'> +3.0958989e-04 </wgt>
<wgt id='morphing_basis_vector_3'> +2.7528906e-04 </wgt>
<wgt id='morphing_basis_vector_4'> +3.8493114e-05 </wgt>
<wgt id='morphing_basis_vector_5'> +2.0891439e-04 </wgt>
</rwgt>
</event>
<event>
 4      1 +7.8865000e-07 1.08560900e+03 7.81860800e-03 8.60690600e-02
        2 -1    0    0  501    0 +0.0000000000e+00 +0.0000000000e+00 +4.5290833495e+03 4.5290833495e+03 0.0000000000e+00 0.0000e+00 1.0000e+00
       -2 -1    0    0    0  501 -0.0000000000e+00 -0.0000000000e+00 -6.5054354686e+01 6.5054354686e+01 0.0000000000e+00 0.0000e+00 -1.0000e+00
      -13  1    1    2    0    0 -3.6347447856e+02 -3.8530229933e+02 +1.7301331021e+03 1.8094010361e+03 0.0000000000e+00 0.0000e+00 -1.0000e+00
       13  1    1    2    0    0 +3.6347447856e+02 +3.8530229933e+02 +2.7338958927e+03 2.7847366681e+03 0.0000000000e+00 0.0000e+00 1.0000e+00
<mgrwt>
<rscale>  0 0.10856088E+04</rscale>
<asrwt>0</asrwt>
<pdfrwt beam="1">  1        2 0.69678181E+00 0.10856088E+04</pdfrwt>
<pdfrwt beam="2">  1       -2 0.10008366E-01 0.10856088E+04</pdfrwt>
<totfact> 0.78734627E+00</totfact>
</mgrwt>
<rwgt>
<wgt id='morphing_basis_vector_1'> +1.7132889e-04 </wgt>
<wgt id='morphing_basis_vector_2'> +1.1463628e-04 </wgt>
<wgt id='morphing_basis_vector_3'> +1.6826626e-04 </wgt>
<wgt id='morphing_basis_vector_4'> +9.9754350e-05 </wgt>
<wgt id='morphing_basis_vector_5'> +1.6466995e-04 </wgt>
</rwgt>
</event>
<event>
 4      1 +7.8865000e-07 1.16643200e+03 7.81860800e-03 8.54021800e-02
        2 -1    0    0  501    0 +0.0000000000e+00 +0.0000000000e+00 +1.2273552131e+03 1.2273552131e+03 0.0000000000e+00 0.0000e+00 1.0000e+00
       -2 -1    0    0    0  501 -0.0000000000e+00 -0.0000000000e+00 -2.7713305073e+02 2.7713305073e+02 0.0000000000e+00 0.0000e+00 -1.0000e+00
      -13  1    1    2    0    0 +5.5443216922e+02 +1.7645045948e+02 +5.2687936273e+02 7.8494054411e+02 0.0000000000e+00 0.0000e+00 1.0000e+00
       13  1    1    2    0    0 -5.5443216922e+02 -1.7645045948e+02 +4.2334279960e+02 7.1954771968e+02 0.0000000000e+00 0.0000e+00 -1.0000e+00
<mgrwt>
<rscale>  0 0.11664316E+04</rscale>
<asrwt>0</asrwt>
<pdfrwt beam="1">  1        2 0.18882388E+00 0.11664316E+04</pdfrwt>
<pdfrwt beam="2">  1       -2 0.42635855E-01 0.11664316E+04</pdfrwt>
<totfact> 0.11630269E+02</totfact>
</mgrwt>
<rwgt>
<wgt id='morphing_basis_vector_1'> +2.3106455e-04 </wgt>
<wgt id='morphing_basis_vector_2'> +1.7151096e-04 </wgt>
<wgt id='morphing_basis_vector_3'> +2.3133512e-04 </wgt>
<wgt id='morphing_basis_vector_4'> +1.2398344e-04 </wgt>
<wgt id='morphing_basis_vector_5'> +2.2292777e-04 </wgt>
</rwgt>
</event>
<event>
 4      1 +7.8865000e-07 1.12566700e+03 7.81860800e-03 8.57312600e-02
        2 -1    0    0  501    0 +0.0000000000e+00 +0.0000000000e+00 +4.3018061128e+02 4.3018061128e+02 0.0000000000e+00 0.0000e+00 -1.0000e+00
       -2 -1    0    0    0  501 -0.0000000000e+00 -0.0000000000e+00 -7.3639222915e+02 7.3639222915e+02 0.0000000000e+00 0.0000e+00 1.0000e+00
      -13  1    1    2    0    0 -8.8175475903e+01 -2.8210810384e+02 -6.4949138897e+02 7.1358178308e+02 0.0000000000e+00 0.0000e+00 1.0000e+00
       13  1    1    2    0    0 +8.8175475903e+01 +2.8210810384e+02 +3.4327977109e+02 4.5299105736e+02 0.0000000000e+00 0.0000e+00 -1.0000e+00
<mgrwt>
<rscale>  0 0.11256672E+04</rscale>
<asrwt>0</asrwt>
<pdfrwt beam="1">  1        2 0.66181633E-01 0.11256672E+04</pdfrwt>
<pdfrwt beam="2">  1       -2 0.11329111E+00 0.11256672E+04</pdfrwt>
<totfact> 0.54123770E+01</totfact>
</mgrwt>
<rwgt>
<wgt id='morphing_basis_vector_1'> +1.9326498e-04 </wgt>
<wgt id='morphing_basis_vector_2'> +1.2288724e-04 </wgt>
<wgt id='morphing_basis_vector_3'> +1.9118139e-04 </wgt>
<wgt id='morphing_basis_vector_4'> +1.2133967e-04 </wgt>
<wgt id='morphing_basis_vector_5'> +1.9258702e-04 </wgt>
</rwgt>
</event>
<event>
 4      1 +7.8865000e-07 1.19295300e+03 7.81860800e-03 8.51955900e-02
        2 -1    0    0  501    0 +0.0000000000e+00 +0.0000000000e+00 +9.4234727597e+02 9.4234727597e+02 0.0000000000e+00 0.0000e+00 1.0000e+00
       -2 -1    0    0    0  501 -0.0000000000e+00 -0.0000000000e+00 -3.7755132978e+02 3.7755132978e+02 0.0000000000e+00 0.0000e+00 -1.0000e+00
      -13  1    1    2    0    0 +2.1366156968e+02 +2.7871178101e+02 -2.5104083521e+02 4.3168625664e+02 0.0000000000e+00 0.0000e+00 -1.0000e+00
       13  1    1    2    0    0 -2.1366156968e+02 -2.7871178101e+02 +8.1583678140e+02 8.8821234911e+02 0.0000000000e+00 0.0000e+00 1.0000e+00
<mgrwt>
<rscale>  0 0.11929534E+04</rscale>
<asrwt>0</asrwt>
<pdfrwt beam="1">  1        2 0.14497650E+00 0.11929534E+04</pdfrwt>
<pdfrwt beam="2">  1       -2 0.58084820E-01 0.11929534E+04</pdfrwt>
<totfact> 0.94185760E+01</totfact>
</mgrwt>
<rwgt>
<wgt id='morphing_basis_vector_1'> +2.4057490e-04 </wgt>
<wgt id='morphing_basis_vector_2'> +1.5413678e-04 </wgt>
<wgt id='morphing_basis_vector_3'> +2.4078735e-04 </wgt>
<wgt id='morphing_basis_vector_4'> +1.5508522e-04 </wgt>
<wgt id='morphing_basis_vector_5'> +2.4648155e-04 </wgt>
</rwgt>
</event>
<event>
 4      1 +7.8865000e-07 1.16478100e+03 7.81860800e-03 8.54152300e-02
        2 -1    0    0  501    0 +0.0000000000e+00 +0.0000000000e+00 +4.7528118196e+02 4.7528118196e+02 0.0000000000e+00 0.0000e+00 -1.0000e+00
       -2 -1    0    0    0  501 -0.0000000000e+00 -0.0000000000e+00 -7.1363749648e+02 7.1363749648e+02 0.0000000000e+00 0.0000e+00 1.0000e+00
      -13  1    1    2    0    0 -3.2787405514e+02 -3.4982735208e+02 -4.5663164730e+02 6.6211255358e+02 0.0000000000e+00 0.0000e+00 1.0000e+00
       13  1    1    2    0    0 +3.2787405514e+02 +3.4982735208e+02 +2.1827533278e+02 5.2680612486e+02 0.0000000000e+00 0.0000e+00 -1.0000e+00
<mgrwt>
<rscale>  0 0.11647806E+04</rscale>
<asrwt>0</asrwt>
<pdfrwt beam="1">  1        2 0.73120182E-01 0.11647806E+04</pdfrwt>
<pdfrwt beam="2">  1       -2 0.10979038E+00 0.11647806E+04</pdfrwt>
<totfact> 0.52169298E+01</totfact>
</mgrwt>
<rwgt>
<wgt id='morphing_basis_vector_1'> +2.2037961e-04 </wgt>
<wgt id='morphing_basis_vector_2'> +1.4214240e-04 </wgt>
<wgt id='morphing_basis_vector_3'> +2.1960467e-04 </wgt>
<wgt id='morphing_basis_vector_4'> +1.3923018e-04 </wgt>
<wgt id='morphing_basis_vector_5'> +2.2265806e-04 </wgt>
</rwgt>
</event>
<event>
 4      1 +7.8865000e-07 1.18988500e+03 7.81860800e-03 8.52192100e-02
        2 -1    0    0  501    0 +0.0000000000e+00 +0.0000000000e+00 +3.9713314617e+02 3.9713314617e+02 0.0000000000e+00 0.0000e+00 -1.0000e+00
       -2 -1    0    0    0  501 -0.0000000000e+00 -0.0000000000e+00 -8.9127908456e+02 8.9127908456e+02 0.0000000000e+00 0.0000e+00 1.0000e+00
      -13  1    1    2    0    0 -3.5910861594e+02 -2.2100272441e+02 -7.0153513219e+02 8.1850641044e+02 0.0000000000e+00 0.0000e+00 1.0000e+00
       13  1    1    2    0    0 +3.5910861594e+02 +2.2100272441e+02 +2.0738919380e+02 4.6990582029e+02 0.0000000000e+00 0.0000e+00 -1.0000e+00
<mgrwt>
<rscale>  0 0.11898848E+04</rscale>
<asrwt>0</asrwt>
<pdfrwt beam="1">  1        2 0.61097407E-01 0.11898848E+04</pdfrwt>
<pdfrwt beam="2">  1       -2 0.13711986E+00 0.11898848E+04</pdfrwt>
<totfact> 0.35625849E+01</totfact>
</mgrwt>
<rwgt>
<wgt id='morphing_basis_vector_1'> +2.3842009e-04 </wgt>
<wgt id='morphing_basis_vector_2'> +1.5312803e-04 </wgt>
<wgt id='morphing_basis_vector_3'> +2.3853426e-04 </wgt>
<wgt id='morphing_basis_vector_4'> +1.5310675e-04 </wgt>
<wgt id='morphing_basis_vector_5'> +2.4378674e-04 </wgt>
</rwgt>
</event>
<event>
 4      1 +7.8865000e-07 1.25244700e+03 7.81860800e-03 8.47520700e-02
        2 -1    0    0  501    0 +0.0000000000e+00 +0.0000000000e+00 +1.8331138239e+03 1.8331138239e+03 0.0000000000e+00 0.0000e+00 1.0000e+00
       -2 -1    0    0    0  501 -0.0000000000e+00 -0.0000000000e+00 -2.1392864853e+02 2.1392864853e+02 0.0000000000e+00 0.0000e+00 -1.0000e+00
      -13  1    1    2    0    0 +5.2928303856e+02 +3.1579518196e+02 +9.9077493724e+02 1.1668342248e+03 0.0000000000e+00 0.0000e+00 -1.0000e+00
       13  1    1    2    0    0 -5.2928303856e+02 -3.1579518196e+02 +6.2841023814e+02 8.8020824766e+02 0.0000000000e+00 0.0000e+00 1.0000e+00
<mgrwt>
<rscale>  0 0.12524465E+04</rscale>
<asrwt>0</asrwt>
<pdfrwt beam="1">  1        2 0.28201750E+00 0.12524465E+04</pdfrwt>
<pdfrwt beam="2">  1       -2 0.32912101E-01 0.12524465E+04</pdfrwt>
<totfact> 0.85197480E+01</totfact>
</mgrwt>
<rwgt>
<wgt id='morphing_basis_vector_1'> +3.0857071e-04 </wgt>
<wgt id='morphing_basis_vector_2'> +2.4410458e-04 </wgt>
<wgt id='morphing_basis_vector_3'> +3.1472019e-04 </wgt>
<wgt id='morphing_basis_vector_4'> +1.5667738e-04 </wgt>
<wgt id='morphing_basis_vector_5'> +3.0039354e-04 </wgt>
</rwgt>
</event>
<event>
 4      1 +7.8865000e-07 1.20183000e+03 7.81860800e-03 8.51277100e-02
        2 -1    0    0  501    0 +0.0000000000e+00 +0.0000000000e+00 +3.4526877126e+02 3.4526877126e+02 0.0000000000e+00 0.0000e+00 1.0000e+00
       -2 -1    0    0    0  501 -0.0000000000e+00 -0.0000000000e+00 -1.0458491996e+03 1.0458491996e+03 0.0000000000e+00 0.0000e+00 -1.0000e+00
      -13  1    1    2    0    0 +4.3189802606e+02 -9.7645218282e+01 -8.2050941139e+02 9.3236590872e+02 0.0000000000e+00 0.0000e+00 -1.0000e+00
       13  1    1    2    0    0 -4.3189802606e+02 +9.7645218282e+01 +1.1992898304e+02 4.5875206216e+02 0.0000000000e+00 0.0000e+00 1.0000e+00
<mgrwt>
<rscale>  0 0.12018304E+04</rscale>
<asrwt>0</asrwt>
<pdfrwt beam="1">  1        2 0.53118274E-01 0.12018304E+04</pdfrwt>
<pdfrwt beam="2">  1       -2 0.16089987E+00 0.12018304E+04</pdfrwt>
<totfact> 0.26436750E+01</totfact>
</mgrwt>
<rwgt>
<wgt id='morphing_basis_vector_1'> +2.4767349e-04 </wgt>
<wgt id='morphing_basis_vector_2'> +1.5942519e-04 </wgt>
<wgt id='morphing_basis_vector_3'> +2.4827607e-04 </wgt>
<wgt id='morphing_basis_vector_4'> +1.5957242e-04 </wgt>
<wgt id='morphing_basis_vector_5'> +2.5431005e-04 </wgt>
</rwgt>
</event>
<event>
 4      1 +7.8865000e-07 1.16534800e+03 7.81860800e-03 8.54107400e-02
        2 -1    0    0  501    0 +0.0000000000e+00 +0.0000000000e+00 +1.6624892171e+03 1.6624892171e+03 0.0000000000e+00 0.0000e+00 -1.0000e+00
       -2 -1    0    0    0  501 -0.0000000000e+00 -0.0000000000e+00 -2.0421741852e+02 2.0421741852e+02 0.0000000000e+00 0.0000e+00 1.0000e+00
      -13  1    1    2    0    0 -5.3799497583e+02 -1.6589167977e+01 +3.7168602571e+02 6.5411336649e+02 0.0000000000e+00 0.0000e+00 1.0000e+00
       13  1    1    2    0    0 +5.3799497583e+02 +1.6589167977e+01 +1.0865857729e+03 1.2125932691e+03 0.0000000000e+00 0.0000e+00 -1.0000e+00
<mgrwt>
<rscale>  0 0.11653485E+04</rscale>
<asrwt>0</asrwt>
<pdfrwt beam="1">  1        2 0.25576756E+00 0.11653485E+04</pdfrwt>
<pdfrwt beam="2">  1       -2 0.31418065E-01 0.11653485E+04</pdfrwt>
<totfact> 0.11590120E+02</totfact>
</mgrwt>
<rwgt>
<wgt id='morphing_basis_vector_1'> +2.2183500e-04 </wgt>
<wgt id='morphing_basis_vector_2'> +1.4556974e-04 </wgt>
<wgt id='morphing_basis_vector_3'> +2.2118828e-04 </wgt>
<wgt id='morphing_basis_vector_4'> +1.3774170e-04 </wgt>
<wgt id='morphing_basis_vector_5'> +2.2300094e-04 </wgt>
</rwgt>
</event>
<event>
 4      1 +7.8865000e-07 1.07574300e+03 7.81860800e-03 8.61545600e-02
        2 -1    0    0  501    0 +0.0000000000e+00 +0.0000000000e+00 +2.3757570060e+02 2.3757570060e+02 0.0000000000e+00 0.0000e+00 1.0000e+00
       -2 -1    0    0    0  501 -0.0000000000e+00 -0.0000000000e+00 -1.2177423169e+03 1.2177423169e+03 0.0000000000e+00 0.0000e+00 -1.0000e+00
      -13  1    1    2    0    0 -3.8233824187e+02 +3.7716416554e+02 -5.3000140152e+02 7.5454411706e+02 0.0000000000e+00 0.0000e+00 -1.0000e+00
       13  1    1    2    0    0 +3.8233824187e+02 -3.7716416554e+02 -4.5016521480e+02 7.0077390047e+02 0.0000000000e+00 0.0000e+00 1.0000e+00
<mgrwt>
<rscale>  0 0.10757434E+04</rscale>
<asrwt>0</asrwt>
<pdfrwt beam="1">  1        2 0.36550107E-01 0.10757434E+04</pdfrwt>
<pdfrwt beam="2">  1       -2 0.18734497E+00 0.10757434E+04</pdfrwt>
<totfact> 0.25478812E+01</totfact>
</mgrwt>
<rwgt>
<wgt id='morphing_basis_vector_1'> +1.6781885e-04 </wgt>
<wgt id='morphing_basis_vector_2'> +1.1741574e-04 </wgt>
<wgt id='morphing_basis_vector_3'> +1.6454071e-04 </wgt>
<wgt id='morphing_basis_vector_4'> +9.2323412e-05 </wgt>
<wgt id='morphing_basis_vector_5'> +1.5811770e-04 </wgt>
</rwgt>
</event>
<event>
 4      1 +7.8865000e-07 1.28132200e+03 7.81860800e-03 8.45460300e-02
        2 -1    0    0  501    0 +0.0000000000e+00 +0.0000000000e+00 +2.2726632284e+03 2.2726632284e+03 0.0000000000e+00 0.0000e+00 1.0000e+00
       -2 -1    0    0    0  501 -0.0000000000e+00 -0.0000000000e+00 -1.8060151991e+02 1.8060151991e+02 0.0000000000e+00 0.0000e+00 -1.0000e+00
      -13  1    1    2    0    0 +2.0666128342e+02 +4.2595305895e+02 +2.1962306736e+02 5.2189959399e+02 0.0000000000e+00 0.0000e+00 -1.0000e+00
       13  1    1    2    0    0 -2.0666128342e+02 -4.2595305895e+02 +1.8724386412e+03 1.9313651543e+03 0.0000000000e+00 0.0000e+00 1.0000e+00
<mgrwt>
<rscale>  0 0.12813219E+04</rscale>
<asrwt>0</asrwt>
<pdfrwt beam="1">  1        2 0.34964048E+00 0.12813219E+04</pdfrwt>
<pdfrwt beam="2">  1       -2 0.27784851E-01 0.12813219E+04</pdfrwt>
<totfact> 0.64952107E+01</totfact>
</mgrwt>
<rwgt>
<wgt id='morphing_basis_vector_1'> +3.1585857e-04 </wgt>
<wgt id='morphing_basis_vector_2'> +2.0472341e-04 </wgt>
<wgt id='morphing_basis_vector_3'> +3.2029352e-04 </wgt>
<wgt id='morphing_basis_vector_4'> +2.0887073e-04 </wgt>
<wgt id='morphing_basis_vector_5'> +3.3315442e-04 </wgt>
</rwgt>
</event>
<event>
 4      1 +7.8865000e-07 1.23670100e+03 7.81860800e-03 8.48668900e-02
        2 -1    0    0  501    0 +0.0000000000e+00 +0.0000000000e+00 +1.2891612675e+03 1.2891612675e+03 0.0000000000e+00 0.0000e+00 1.0000e+00
       -2 -1    0    0    0  501 -0.0000000000e+00 -0.0000000000e+00 -2.9659389148e+02 2.9659389148e+02 0.0000000000e+00 0.0000e+00 -1.0000e+00
      -13  1    1    2    0    0 +5.0747215399e+02 +1.3319335929e+02 +7.6675804870e+01 5.3023356842e+02 0.0000000000e+00 0.0000e+00 -1.0000e+00
       13  1    1    2    0    0 -5.0747215399e+02 -1.3319335929e+02 +9.1589157117e+02 1.0555215906e+03 0.0000000000e+00 0.0000e+00 1.0000e+00
<mgrwt>
<rscale>  0 0.12367010E+04</rscale>
<asrwt>0</asrwt>
<pdfrwt beam="1">  1        2 0.19833250E+00 0.12367010E+04</pdfrwt>
<pdfrwt beam="2">  1       -2 0.45629830E-01 0.12367010E+04</pdfrwt>
<totfact> 0.93648583E+01</totfact>
</mgrwt>
<rwgt>
<wgt id='morphing_basis_vector_1'> +2.7665310e-04 </wgt>
<wgt id='morphing_basis_vector_2'> +1.8010776e-04 </wgt>
<wgt id='morphing_basis_vector_3'> +2.7889490e-04 </wgt>
<wgt id='morphing_basis_vector_4'> +1.7891480e-04 </wgt>
<wgt id='morphing_basis_vector_5'> +2.8689761e-04 </wgt>
</rwgt>
</event>
<event>
 4      1 +7.8865000e-07 1.07174800e+03 7.81860800e-03 8.61894600e-02
        2 -1    0    0  501    0 +0.0000000000e+00 +0.0000000000e+00 +3.9861260965e+02 3.9861260965e+02 0.0000000000e+00 0.0000e+00 -1.0000e+00
       -2 -1    0    0    0  501 -0.0000000000e+00 -0.0000000000e+00 -7.2040100198e+02 7.2040100198e+02 0.0000000000e+00 0.0000e+00 1.0000e+00
      -13  1    1    2    0    0 -3.8111758777e+02 -4.3640649728e+01 -5.5156928442e+02 6.7185102332e+02 0.0000000000e+00 0.0000e+00 1.0000e+00
       13  1    1    2    0    0 +3.8111758777e+02 +4.3640649728e+01 +2.2978089209e+02 4.4716258831e+02 0.0000000000e+00 0.0000e+00 -1.0000e+00
<mgrwt>
<rscale>  0 0.10717480E+04</rscale>
<asrwt>0</asrwt>
<pdfrwt beam="1">  1        2 0.61325017E-01 0.10717480E+04</pdfrwt>
<pdfrwt beam="2">  1       -2 0.11083092E+00 0.10717480E+04</pdfrwt>
<totfact> 0.62596869E+01</totfact>
</mgrwt>
<rwgt>
<wgt id='morphing_basis_vector_1'> +1.6098086e-04 </wgt>
<wgt id='morphing_basis_vector_2'> +1.0209615e-04 </wgt>
<wgt id='morphing_basis_vector_3'> +1.5753428e-04 </wgt>
<wgt id='morphing_basis_vector_4'> +9.8174956e-05 </wgt>
<wgt id='morphing_basis_vector_5'> +1.5607377e-04 </wgt>
</rwgt>
</event>
<event>
 4      1 +7.8865000e-07 1.12431300e+03 7.81860800e-03 8.57424400e-02
        2 -1    0    0  501    0 +0.0000000000e+00 +0.0000000000e+00 +1.4560772283e+03 1.4560772283e+03 0.0000000000e+00 0.0000e+00 -1.0000e+00
       -2 -1    0    0    0  501 -0.0000000000e+00 -0.0000000000e+00 -2.1703507418e+02 2.1703507418e+02 0.0000000000e+00 0.0000e+00 1.0000e+00
      -13  1    1    2    0    0 +1.9961128557e+02 +1.4524824488e+02 -1.3205773139e+02 2.7996600220e+02 0.0000000000e+00 0.0000e+00 1.0000e+00
       13  1    1    2    0    0 -1.9961128557e+02 -1.4524824488e+02 +1.3710998855e+03 1.3931463003e+03 0.0000000000e+00 0.0000e+00 -1.0000e+00
<mgrwt>
<rscale>  0 0.11243128E+04</rscale>
<asrwt>0</asrwt>
<pdfrwt beam="1">  1        2 0.22401188E+00 0.11243128E+04</pdfrwt>
<pdfrwt beam="2">  1       -2 0.33390012E-01 0.11243128E+04</pdfrwt>
<totfact> 0.13577358E+02</totfact>
</mgrwt>
<rwgt>
<wgt id='morphing_basis_vector_1'> +1.9236551e-04 </wgt>
<wgt id='morphing_basis_vector_2'> +1.2223119e-04 </wgt>
<wgt id='morphing_basis_vector_3'> +1.9024094e-04 </wgt>
<wgt id='morphing_basis_vector_4'> +1.2076643e-04 </wgt>
<wgt id='morphing_basis_vector_5'> +1.9160335e-04 </wgt>
</rwgt>
</event>
<event>
 4      1 +7.8865000e-07 1.07600000e+03 7.81860800e-03 8.61523300e-02
        2 -1    0    0  501    0 +0.0000000000e+00 +0.0000000000e+00 +1.1659238213e+03 1.1659238213e+03 0.0000000000e+00 0.0000e+00 -1.0000e+00
       -2 -1    0    0    0  501 -0.0000000000e+00 -0.0000000000e+00 -2.4825284030e+02 2.4825284030e+02 0.0000000000e+00 0.0000e+00 1.0000e+00
      -13  1    1    2    0    0 +1.9406079778e+02 +4.0813781441e+01 -1.9846569211e+02 2.8056013426e+02 0.0000000000e+00 0.0000e+00 1.0000e+00
       13  1    1    2    0    0 -1.9406079778e+02 -4.0813781441e+01 +1.1161366731e+03 1.1336165274e+03 0.0000000000e+00 0.0000e+00 -1.0000e+00
<mgrwt>
<rscale>  0 0.10759998E+04</rscale>
<asrwt>0</asrwt>
<pdfrwt beam="1">  1        2 0.17937289E+00 0.10759998E+04</pdfrwt>
<pdfrwt beam="2">  1       -2 0.38192746E-01 0.10759998E+04</pdfrwt>
<totfact> 0.15617494E+02</totfact>
</mgrwt>
<rwgt>
<wgt id='morphing_basis_vector_1'> +1.6318227e-04 </wgt>
<wgt id='morphing_basis_vector_2'> +1.0308035e-04 </wgt>
<wgt id='morphing_basis_vector_3'> +1.5982672e-04 </wgt>
<wgt id='morphing_basis_vector_4'> +1.0016730e-04 </wgt>
<wgt id='morphing_basis_vector_5'> +1.5877020e-04 </wgt>
</rwgt>
</event>
<event>
 4      1 +7.8865000e-07 1.08331400e+03 7.81860800e-03 8.60888600e-02
        2 -1    0    0  501    0 +0.0000000000e+00 +0.0000000000e+00 +1.5507608014e+03 1.5507608014e+03 0.0000000000e+00 0.0000e+00 -1.0000e+00
       -2 -1    0    0    0  501 -0.0000000000e+00 -0.0000000000e+00 -1.8919265735e+02 1.8919265735e+02 0.0000000000e+00 0.0000e+00 1.0000e+00
      -13  1    1    2    0    0 -1.8687822650e+02 +2.4771939656e+02 -3.2284037242e+01 3.1197857303e+02 0.0000000000e+00 0.0000e+00 1.0000e+00
       13  1    1    2    0    0 +1.8687822650e+02 -2.4771939656e+02 +1.3938521813e+03 1.4279748858e+03 0.0000000000e+00 0.0000e+00 -1.0000e+00
<mgrwt>
<rscale>  0 0.10833145E+04</rscale>
<asrwt>0</asrwt>
<pdfrwt beam="1">  1        2 0.23857858E+00 0.10833145E+04</pdfrwt>
<pdfrwt beam="2">  1       -2 0.29106564E-01 0.10833145E+04</pdfrwt>
<totfact> 0.15401208E+02</totfact>
</mgrwt>
<rwgt>
<wgt id='morphing_basis_vector_1'> +1.6742142e-04 </wgt>
<wgt id='morphing_basis_vector_2'> +1.0598757e-04 </wgt>
<wgt id='morphing_basis_vector_3'> +1.6423366e-04 </wgt>
<wgt id='morphing_basis_vector_4'> +1.0301666e-04 </wgt>
<wgt id='morphing_basis_vector_5'> +1.6344785e-04 </wgt>
</rwgt>
</event>
<event>
 4      1 +7.8865000e-07 1.09380900e+03 7.81860800e-03 8.59987000e-02
        2 -1    0    0  501    0 +0.0000000000e+00 +0.0000000000e+00 +6.0819444213e+02 6.0819444213e+02 0.0000000000e+00 0.0000e+00 1.0000e+00
       -2 -1    0    0    0  501 -0.0000000000e+00 -0.0000000000e+00 -4.9179135639e+02 4.9179135639e+02 0.0000000000e+00 0.0000e+00 -1.0000e+00
      -13  1    1    2    0    0 +3.6106385157e+02 -4.0164807305e+02 -2.8403788054e+01 5.4082811934e+02 0.0000000000e+00 0.0000e+00 -1.0000e+00
       13  1    1    2    0    0 -3.6106385157e+02 +4.0164807305e+02 +1.4480687380e+02 5.5915767918e+02 0.0000000000e+00 0.0000e+00 1.0000e+00
<mgrwt>
<rscale>  0 0.10938094E+04</rscale>
<asrwt>0</asrwt>
<pdfrwt beam="1">  1        2 0.93568376E-01 0.10938094E+04</pdfrwt>
<pdfrwt beam="2">  1       -2 0.75660209E-01 0.10938094E+04</pdfrwt>
<totfact> 0.94599740E+01</totfact>
</mgrwt>
<rwgt>
<wgt id='morphing_basis_vector_1'> +1.7696194e-04 </wgt>
<wgt id='morphing_basis_vector_2'> +1.2025179e-04 </wgt>
<wgt id='morphing_basis_vector_3'> +1.7414811e-04 </wgt>
<wgt id='morphing_basis_vector_4'> +1.0179417e-04 </wgt>
<wgt id='morphing_basis_vector_5'> +1.6998773e-04 </wgt>
</rwgt>
</event>
<event>
 4      1 +7.8865000e-07 1.11035200e+03 7.81860800e-03 8.58586700e-02
        2 -1    0    0  501    0 +0.0000000000e+00 +0.0000000000e+00 +8.0839456895e+02 8.0839456895e+02 0.0000000000e+00 0.0000e+00 1.0000e+00
       -2 -1    0    0    0  501 -0.0000000000e+00 -0.0000000000e+00 -3.8127480665e+02 3.8127480665e+02 0.0000000000e+00 0.0000e+00 -1.0000e+00
      -13  1    1    2    0    0 +3.3055578274e+02 +1.2310026929e+02 -2.4578397826e+02 4.2991925494e+02 0.0000000000e+00 0.0000e+00 -1.0000e+00
       13  1    1    2    0    0 -3.3055578274e+02 -1.2310026929e+02 +6.7290374055e+02 7.5975012066e+02 0.0000000000e+00 0.0000e+00 1.0000e+00
<mgrwt>
<rscale>  0 0.11103522E+04</rscale>
<asrwt>0</asrwt>
<pdfrwt beam="1">  1        2 0.12436840E+00 0.11103522E+04</pdfrwt>
<pdfrwt beam="2">  1       -2 0.58657663E-01 0.11103522E+04</pdfrwt>
<totfact> 0.11399955E+02</totfact>
</mgrwt>
<rwgt>
<wgt id='morphing_basis_vector_1'> +1.8365499e-04 </wgt>
<wgt id='morphing_basis_vector_2'> +1.1675054e-04 </wgt>
<wgt id='morphing_basis_vector_3'> +1.8114750e-04 </wgt>
<wgt id='morphing_basis_vector_4'> +1.1435162e-04 </wgt>
<wgt id='morphing_basis_vector_5'> +1.8163704e-04 </wgt>
</rwgt>
</event>
<event>
 4      1 +7.8865000e-07 1.14678900e+03 7.81860800e-03 8.55589500e-02
        2 -1    0    0  501    0 +0.0000000000e+00 +0.0000000000e+00 +1.7189836131e+03 1.7189836131e+03 0.0000000000e+00 0.0000e+00 1.0000e+00
       -2 -1    0    0    0  501 -0.0000000000e+00 -0.0000000000e+00 -1.9126489915e+02 1.9126489915e+02 0.0000000000e+00 0.0000e+00 -1.0000e+00
      -13  1    1    2    0    0 -2.5279730218e+02 -1.3579381401e+02 +1.5907677097e+03 1.6164431144e+03 0.0000000000e+00 0.0000e+00 1.0000e+00
       13  1    1    2    0    0 +2.5279730218e+02 +1.3579381401e+02 -6.3048995775e+01 2.9380539781e+02 0.0000000000e+00 0.0000e+00 -1.0000e+00
<mgrwt>
<rscale>  0 0.11467890E+04</rscale>
<asrwt>0</asrwt>
<pdfrwt beam="1">  1        2 0.26445901E+00 0.11467890E+04</pdfrwt>
<pdfrwt beam="2">  1       -2 0.29425370E-01 0.11467890E+04</pdfrwt>
<totfact> 0.12132347E+02</totfact>
</mgrwt>
<rwgt>
<wgt id='morphing_basis_vector_1'> +2.7992292e-04 </wgt>
<wgt id='morphing_basis_vector_2'> +3.5077269e-04 </wgt>
<wgt id='morphing_basis_vector_3'> +2.8477581e-04 </wgt>
<wgt id='morphing_basis_vector_4'> +9.3937502e-06 </wgt>
<wgt id='morphing_basis_vector_5'> +2.0040567e-04 </wgt>
</rwgt>
</event>
<event>
 4      1 +7.8865000e-07 1.09142300e+03 7.81860800e-03 8.60191100e-02
        2 -1    0    0  501    0 +0.0000000000e+00 +0.0000000000e+00 +1.7605244961e+03 1.7605244961e+03 0.0000000000e+00 0.0000e+00 1.0000e+00
       -2 -1    0    0    0  501 -0.0000000000e+00 -0.0000000000e+00 -1.6915487247e+02 1.6915487247e+02 0.0000000000e+00 0.0000e+00 -1.0000e+00
      -13  1    1    2    0    0 -5.0653837875e+02 +1.9498229579e+02 +6.9563704514e+02 8.8233220693e+02 0.0000000000e+00 0.0000e+00 -1.0000e+00
       13  1    1    2    0    0 +5.0653837875e+02 -1.9498229579e+02 +8.9573257847e+02 1.0473471616e+03 0.0000000000e+00 0.0000e+00 1.0000e+00
<mgrwt>
<rscale>  0 0.10914235E+04</rscale>
<asrwt>0</asrwt>
<pdfrwt beam="1">  1        2 0.27084991E+00 0.10914235E+04</pdfrwt>
<pdfrwt beam="2">  1       -2 0.26023828E-01 0.10914235E+04</pdfrwt>
<totfact> 0.14324237E+02</totfact>
</mgrwt>
<rwgt>
<wgt id='morphing_basis_vector_1'> +1.7630564e-04 </wgt>
<wgt id='morphing_basis_vector_2'> +1.2160677e-04 </wgt>
<wgt id='morphing_basis_vector_3'> +1.7345058e-04 </wgt>
<wgt id='morphing_basis_vector_4'> +9.9571551e-05 </wgt>
<wgt id='morphing_basis_vector_5'> +1.6832373e-04 </wgt>
</rwgt>
</event>
<event>
 4      1 +7.8865000e-07 1.09850800e+03 7.81860800e-03 8.59586700e-02
        2 -1    0    0  501    0 +0.0000000000e+00 +0.0000000000e+00 +1.4697824289e+03 1.4697824289e+03 0.0000000000e+00 0.0000e+00 -1.0000e+00
       -2 -1    0    0    0  501 -0.0000000000e+00 -0.0000000000e+00 -2.0525492655e+02 2.0525492655e+02 0.0000000000e+00 0.0000e+00 1.0000e+00
      -13  1    1    2    0    0 +2.8787348745e+02 -3.2758804179e+02 +1.2311005018e+02 4.5314584226e+02 0.0000000000e+00 0.0000e+00 1.0000e+00
       13  1    1    2    0    0 -2.8787348745e+02 +3.2758804179e+02 +1.1414174522e+03 1.2218915132e+03 0.0000000000e+00 0.0000e+00 -1.0000e+00
<mgrwt>
<rscale>  0 0.10985082E+04</rscale>
<asrwt>0</asrwt>
<pdfrwt beam="1">  1        2 0.22612037E+00 0.10985082E+04</pdfrwt>
<pdfrwt beam="2">  1       -2 0.31577682E-01 0.10985082E+04</pdfrwt>
<totfact> 0.14771355E+02</totfact>
</mgrwt>
<rwgt>
<wgt id='morphing_basis_vector_1'> +1.7672117e-04 </wgt>
<wgt id='morphing_basis_vector_2'> +1.1290100e-04 </wgt>
<wgt id='morphing_basis_vector_3'> +1.7391631e-04 </wgt>
<wgt id='morphing_basis_vector_4'> +1.0875587e-04 </wgt>
<wgt id='morphing_basis_vector_5'> +1.7346219e-04 </wgt>
</rwgt>
</event>
<event>
 4      1 +7.8865000e-07 1.13955300e+03 7.81860800e-03 8.56175300e-02
        2 -1    0    0  501    0 +0.0000000000e+00 +0.0000000000e+00 +2.8278673538e+02 2.8278673538e+02 0.0000000000e+00 0.0000e+00 -1.0000e+00
       -2 -1    0    0    0  501 -0.0000000000e+00 -0.0000000000e+00 -1.1480219617e+03 1.1480219617e+03 0.0000000000e+00 0.0000e+00 1.0000e+00
      -13  1    1    2    0    0 +2.9282990490e+02 -2.9934526956e+02 -9.1774975478e+02 1.0087723014e+03 0.0000000000e+00 0.0000e+00 1.0000e+00
       13  1    1    2    0    0 -2.9282990490e+02 +2.9934526956e+02 +5.2514528451e+01 4.2203639572e+02 0.0000000000e+00 0.0000e+00 -1.0000e+00
<mgrwt>
<rscale>  0 0.11395532E+04</rscale>
<asrwt>0</asrwt>
<pdfrwt beam="1">  1        2 0.43505653E-01 0.11395532E+04</pdfrwt>
<pdfrwt beam="2">  1       -2 0.17661876E+00 0.11395532E+04</pdfrwt>
<totfact> 0.25061684E+01</totfact>
</mgrwt>
<rwgt>
<wgt id='morphing_basis_vector_1'> +2.0262222e-04 </wgt>
<wgt id='morphing_basis_vector_2'> +1.2960963e-04 </wgt>
<wgt id='morphing_basis_vector_3'> +2.0097481e-04 </wgt>
<wgt id='morphing_basis_vector_4'> +1.2741689e-04 </wgt>
<wgt id='morphing_basis_vector_5'> +2.0289291e-04 </wgt>
</rwgt>
</event>
<event>
 4      1 +7.8865000e-07 1.07304800e+03 7.81860800e-03 8.61780800e-02
        2 -1    0    0  501    0 +0.0000000000e+00 +0.0000000000e+00 +9.9417380262e+02 9.9417380262e+02 0.0000000000e+00 0.0000e+00 -1.0000e+00
       -2 -1    0    0    0  501 -0.0000000000e+00 -0.0000000000e+00 -2.8954514390e+02 2.8954514390e+02 0.0000000000e+00 0.0000e+00 1.0000e+00
      -13  1    1    2    0    0 -2.8858307900e+02 -3.4620918307e+02 +4.1081578370e+00 4.5073037271e+02 0.0000000000e+00 0.0000e+00 1.0000e+00
       13  1    1    2    0    0 +2.8858307900e+02 +3.4620918307e+02 +7.0052050088e+02 8.3298857380e+02 0.0000000000e+00 0.0000e+00 -1.0000e+00
<mgrwt>
<rscale>  0 0.10730484E+04</rscale>
<asrwt>0</asrwt>
<pdfrwt beam="1">  1        2 0.15294981E+00 0.10730484E+04</pdfrwt>
<pdfrwt beam="2">  1       -2 0.44545407E-01 0.10730484E+04</pdfrwt>
<totfact> 0.14860447E+02</totfact>
</mgrwt>
<rwgt>
<wgt id='morphing_basis_vector_1'> +1.6206879e-04 </wgt>
<wgt id='morphing_basis_vector_2'> +1.0365538e-04 </wgt>
<wgt id='morphing_basis_vector_3'> +1.5865606e-04 </wgt>
<wgt id='morphing_basis_vector_4'> +9.8106921e-05 </wgt>
<wgt id='morphing_basis_vector_5'> +1.5685224e-04 </wgt>
</rwgt>
</event>
<event>
 4      1 +7.8865000e-07 1.10626900e+03 7.81860800e-03 8.58930000e-02
        2 -1    0    0  501    0 +0.0000000000e+00 +0.0000000000e+00 +1.7462697173e+03 1.7462697173e+03 0.0000000000e+00 0.0000e+00 -1.0000e+00
       -2 -1    0    0    0  501 -0.0000000000e+00 -0.0000000000e+00 -1.7520659485e+02 1.7520659485e+02 0.0000000000e+00 0.0000e+00 1.0000e+00
      -13  1    1    2    0    0 +3.1261103341e+02 -3.0387188891e+02 +1.9423550645e+02 4.7727477939e+02 0.0000000000e+00 0.0000e+00 1.0000e+00
       13  1    1    2    0    0 -3.1261103341e+02 +3.0387188891e+02 +1.3768276160e+03 1.4442015328e+03 0.0000000000e+00 0.0000e+00 -1.0000e+00
<mgrwt>
<rscale>  0 0.11062694E+04</rscale>
<asrwt>0</asrwt>
<pdfrwt beam="1">  1        2 0.26865687E+00 0.11062694E+04</pdfrwt>
<pdfrwt beam="2">  1       -2 0.26954862E-01 0.11062694E+04</pdfrwt>
<totfact> 0.13707654E+02</totfact>
</mgrwt>
<rwgt>
<wgt id='morphing_basis_vector_1'> +1.8142374e-04 </wgt>
<wgt id='morphing_basis_vector_2'> +1.1596152e-04 </wgt>
<wgt id='morphing_basis_vector_3'> +1.7882131e-04 </wgt>
<wgt id='morphing_basis_vector_4'> +1.1209957e-04 </wgt>
<wgt id='morphing_basis_vector_5'> +1.7876837e-04 </wgt>
</rwgt>
</event>
<event>
 4      1 +7.8865000e-07 1.13824000e+03 7.81860800e-03 8.56282200e-02
        2 -1    0    0  501    0 +0.0000000000e+00 +0.0000000000e+00 +3.6991514452e+02 3.6991514452e+02 0.0000000000e+00 0.0000e+00 -1.0000e+00
       -2 -1    0    0    0  501 -0.0000000000e+00 -0.0000000000e+00 -8.7559890143e+02 8.7559890143e+02 0.0000000000e+00 0.0000e+00 1.0000e+00
      -13  1    1    2    0    0 -1.3308587868e+02 +4.8701497280e+01 -8.5598250735e+02 8.6763456583e+02 0.0000000000e+00 0.0000e+00 1.0000e+00
       13  1    1    2    0    0 +1.3308587868e+02 -4.8701497280e+01 +3.5029875043e+02 3.7787948012e+02 0.0000000000e+00 0.0000e+00 -1.0000e+00
<mgrwt>
<rscale>  0 0.11382395E+04</rscale>
<asrwt>0</asrwt>
<pdfrwt beam="1">  1        2 0.56910022E-01 0.11382395E+04</pdfrwt>
<pdfrwt beam="2">  1       -2 0.13470752E+00 0.11382395E+04</pdfrwt>
<totfact> 0.40695764E+01</totfact>
</mgrwt>
<rwgt>
<wgt id='morphing_basis_vector_1'> +2.0145263e-04 </wgt>
<wgt id='morphing_basis_vector_2'> +1.2815002e-04 </wgt>
<wgt id='morphing_basis_vector_3'> +1.9974116e-04 </wgt>
<wgt id='morphing_basis_vector_4'> +1.2728353e-04 </wgt>
<wgt id='morphing_basis_vector_5'> +2.0193063e-04 </wgt>
</rwgt>
</event>
<event>
 4      1 +7.8865000e-07 1.07226600e+03 7.81860800e-03 8.61849200e-02
        2 -1    0    0  501    0 +0.0000000000e+00 +0.0000000000e+00 +1.0930700613e+03 1.0930700613e+03 0.0000000000e+00 0.0000e+00 -1.0000e+00
       -2 -1    0    0    0  501 -0.0000000000e+00 -0.0000000000e+00 -2.6296459078e+02 2.6296459078e+02 0.0000000000e+00 0.0000e+00 1.0000e+00
      -13  1    1    2    0    0 -3.3112366122e+02 +3.9495497356e+02 +2.2830288836e+02 5.6369718732e+02 0.0000000000e+00 0.0000e+00 1.0000e+00
       13  1    1    2    0    0 +3.3112366122e+02 -3.9495497356e+02 +6.0180258213e+02 7.9233746473e+02 0.0000000000e+00 0.0000e+00 -1.0000e+00
<mgrwt>
<rscale>  0 0.10722662E+04</rscale>
<asrwt>0</asrwt>
<pdfrwt beam="1">  1        2 0.16816462E+00 0.10722662E+04</pdfrwt>
<pdfrwt beam="2">  1       -2 0.40456091E-01 0.10722662E+04</pdfrwt>
<totfact> 0.15507279E+02</totfact>
</mgrwt>
<rwgt>
<wgt id='morphing_basis_vector_1'> +1.6306787e-04 </wgt>
<wgt id='morphing_basis_vector_2'> +1.0770872e-04 </wgt>
<wgt id='morphing_basis_vector_3'> +1.5965727e-04 </wgt>
<wgt id='morphing_basis_vector_4'> +9.5475396e-05 </wgt>
<wgt id='morphing_basis_vector_5'> +1.5621489e-04 </wgt>
</rwgt>
</event>
<event>
 4      1 +7.8865000e-07 1.15972800e+03 7.81860800e-03 8.54553100e-02
        2 -1    0    0  501    0 +0.0000000000e+00 +0.0000000000e+00 +5.6655467247e+02 5.6655467247e+02 0.0000000000e+00 0.0000e+00 1.0000e+00
       -2 -1    0    0    0  501 -0.0000000000e+00 -0.0000000000e+00 -5.9348590986e+02 5.9348590986e+02 0.0000000000e+00 0.0000e+00 -1.0000e+00
      -13  1    1    2    0    0 -4.9562535280e+02 -1.1041468948e+02 -2.9355239613e+02 5.8652272186e+02 0.0000000000e+00 0.0000e+00 -1.0000e+00
       13  1    1    2    0    0 +4.9562535280e+02 +1.1041468948e+02 +2.6662115874e+02 5.7351786047e+02 0.0000000000e+00 0.0000e+00 1.0000e+00
<mgrwt>
<rscale>  0 0.11597279E+04</rscale>
<asrwt>0</asrwt>
<pdfrwt beam="1">  1        2 0.87162257E-01 0.11597279E+04</pdfrwt>
<pdfrwt beam="2">  1       -2 0.91305524E-01 0.11597279E+04</pdfrwt>
<totfact> 0.66589136E+01</totfact>
</mgrwt>
<rwgt>
<wgt id='morphing_basis_vector_1'> +2.1718208e-04 </wgt>
<wgt id='morphing_basis_vector_2'> +1.4091852e-04 </wgt>
<wgt id='morphing_basis_vector_3'> +2.1626727e-04 </wgt>
<wgt id='morphing_basis_vector_4'> +1.3604202e-04 </wgt>
<wgt id='morphing_basis_vector_5'> +2.1854024e-04 </wgt>
</rwgt>
</event>
<event>
 4      1 +7.8865000e-07 1.15144900e+03 7.81860800e-03 8.55214600e-02
        2 -1    0    0  501    0 +0.0000000000e+00 +0.0000000000e+00 +1.4572437085e+03 1.4572437085e+03 0.0000000000e+00 0.0000e+00 -1.0000e+00
       -2 -1    0    0    0  501 -0.0000000000e+00 -0.0000000000e+00 -2.2745584389e+02 2.2745584389e+02 0.0000000000e+00 0.0000e+00 1.0000e+00
      -13  1    1    2    0    0 -4.4578826118e+02 +1.4566077413e+02 +1.2630545142e+02 4.8569260030e+02 0.0000000000e+00 0.0000e+00 1.0000e+00
       13  1    1    2    0    0 +4.4578826118e+02 -1.4566077413e+02 +1.1034824132e+03 1.1990069521e+03 0.0000000000e+00 0.0000e+00 -1.0000e+00
<mgrwt>
<rscale>  0 0.11514488E+04</rscale>
<asrwt>0</asrwt>
<pdfrwt beam="1">  1        2 0.22419133E+00 0.11514488E+04</pdfrwt>
<pdfrwt beam="2">  1       -2 0.34993208E-01 0.11514488E+04</pdfrwt>
<totfact> 0.12429302E+02</totfact>
</mgrwt>
<rwgt>
<wgt id='morphing_basis_vector_1'> +2.1097911e-04 </wgt>
<wgt id='morphing_basis_vector_2'> +1.3578966e-04 </wgt>
<wgt id='morphing_basis_vector_3'> +2.0974012e-04 </wgt>
<wgt id='morphing_basis_vector_4'> +1.3268063e-04 </wgt>
<wgt id='morphing_basis_vector_5'> +2.1203084e-04 </wgt>
</rwgt>
</event>
<event>
 4      1 +7.8865000e-07 1.07454200e+03 7.81860800e-03 8.61650400e-02
        2 -1    0    0  501    0 +0.0000000000e+00 +0.0000000000e+00 +2.1356001938e+03 2.1356001938e+03 0.0000000000e+00 0.0000e+00 -1.0000e+00
       -2 -1    0    0    0  501 -0.0000000000e+00 -0.0000000000e+00 -1.3516569330e+02 1.3516569330e+02 0.0000000000e+00 0.0000e+00 1.0000e+00
      -13  1    1    2    0    0 -3.2533670223e+02 -9.0019991503e+01 +1.1691180585e+02 3.5723373166e+02 0.0000000000e+00 0.0000e+00 1.0000e+00
       13  1    1    2    0    0 +3.2533670223e+02 +9.0019991503e+01 +1.8835226946e+03 1.9135321554e+03 0.0000000000e+00 0.0000e+00 -1.0000e+00
<mgrwt>
<rscale>  0 0.10745415E+04</rscale>
<asrwt>0</asrwt>
<pdfrwt beam="1">  1        2 0.32855385E+00 0.10745415E+04</pdfrwt>
<pdfrwt beam="2">  1       -2 0.20794724E-01 0.10745415E+04</pdfrwt>
<totfact> 0.12992326E+02</totfact>
</mgrwt>
<rwgt>
<wgt id='morphing_basis_vector_1'> +1.6245003e-04 </wgt>
<wgt id='morphing_basis_vector_2'> +1.0281872e-04 </wgt>
<wgt id='morphing_basis_vector_3'> +1.5906361e-04 </wgt>
<wgt id='morphing_basis_vector_4'> +9.9439631e-05 </wgt>
<wgt id='morphing_basis_vector_5'> +1.5783897e-04 </wgt>
</rwgt>
</event>
<event>
 4      1 +7.8865000e-07 1.08142900e+03 7.81860800e-03 8.61051700e-02
        2 -1    0    0  501    0 +0.0000000000e+00 +0.0000000000e+00 +4.6456185330e+02 4.6456185330e+02 0.0000000000e+00 0.0000e+00 -1.0000e+00
       -2 -1    0    0    0  501 -0.0000000000e+00 -0.0000000000e+00 -6.2935037908e+02 6.2935037908e+02 0.0000000000e+00 0.0000e+00 1.0000e+00
      -13  1    1    2    0    0 -3.5917863682e+02 -4.0323280951e+02 -1.1039385842e+02 5.5117401589e+02 0.0000000000e+00 0.0000e+00 1.0000e+00
       13  1    1    2    0    0 +3.5917863682e+02 +4.0323280951e+02 -5.4394667356e+01 5.4273821650e+02 0.0000000000e+00 0.0000e+00 -1.0000e+00
<mgrwt>
<rscale>  0 0.10814290E+04</rscale>
<asrwt>0</asrwt>
<pdfrwt beam="1">  1        2 0.71471055E-01 0.10814290E+04</pdfrwt>
<pdfrwt beam="2">  1       -2 0.96823135E-01 0.10814290E+04</pdfrwt>
<totfact> 0.73246288E+01</totfact>
</mgrwt>
<rwgt>
<wgt id='morphing_basis_vector_1'> +1.7122365e-04 </wgt>
<wgt id='morphing_basis_vector_2'> +1.2002498e-04 </wgt>
<wgt id='morphing_basis_vector_3'> +1.6810639e-04 </wgt>
<wgt id='morphing_basis_vector_4'> +9.4313655e-05 </wgt>
<wgt id='morphing_basis_vector_5'> +1.6172650e-04 </wgt>
</rwgt>
</event>
<event>
 4      1 +7.8865000e-07 1.12845100e+03 7.81860800e-03 8.57083200e-02
        2 -1    0    0  501    0 +0.0000000000e+00 +0.0000000000e+00 +2.1559815106e+03 2.1559815106e+03 0.0000000000e+00 0.0000e+00 1.0000e+00
       -2 -1    0    0    0  501 -0.0000000000e+00 -0.0000000000e+00 -1.4765920533e+02 1.4765920533e+02 0.0000000000e+00 0.0000e+00 -1.0000e+00
      -13  1    1    2    0    0 -3.9889284016e+02 -2.6166567997e+02 +3.8913471358e+02 6.1563808469e+02 0.0000000000e+00 0.0000e+00 -1.0000e+00
       13  1    1    2    0    0 +3.9889284016e+02 +2.6166567997e+02 +1.6191875916e+03 1.6880026312e+03 0.0000000000e+00 0.0000e+00 1.0000e+00
<mgrwt>
<rscale>  0 0.11284512E+04</rscale>
<asrwt>0</asrwt>
<pdfrwt beam="1">  1        2 0.33168944E+00 0.11284512E+04</pdfrwt>
<pdfrwt beam="2">  1       -2 0.22716802E-01 0.11284512E+04</pdfrwt>
<totfact> 0.10849538E+02</totfact>
</mgrwt>
<rwgt>
<wgt id='morphing_basis_vector_1'> +1.9572690e-04 </wgt>
<wgt id='morphing_basis_vector_2'> +1.2605965e-04 </wgt>
<wgt id='morphing_basis_vector_3'> +1.9377072e-04 </wgt>
<wgt id='morphing_basis_vector_4'> +1.2152122e-04 </wgt>
<wgt id='morphing_basis_vector_5'> +1.9455501e-04 </wgt>
</rwgt>
</event>
<event>
 4      1 +7.8865000e-07 1.13182700e+03 7.81860800e-03 8.56806000e-02
        2 -1    0    0  501    0 +0.0000000000e+00 +0.0000000000e+00 +5.9925814861e+02 5.9925814861e+02 0.0000000000e+00 0.0000e+00 -1.0000e+00
       -2 -1    0    0    0  501 -0.0000000000e+00 -0.0000000000e+00 -5.3442406342e+02 5.3442406342e+02 0.0000000000e+00 0.0000e+00 1.0000e+00
      -13  1    1    2    0    0 -4.4165679705e+01 -4.9343452803e+02 -2.4158163151e+02 5.5117141199e+02 0.0000000000e+00 0.0000e+00 1.0000e+00
       13  1    1    2    0    0 +4.4165679705e+01 +4.9343452803e+02 +3.0641571670e+02 5.8251080003e+02 0.0000000000e+00 0.0000e+00 -1.0000e+00
<mgrwt>
<rscale>  0 0.11318268E+04</rscale>
<asrwt>0</asrwt>
<pdfrwt beam="1">  1        2 0.92193561E-01 0.11318268E+04</pdfrwt>
<pdfrwt beam="2">  1       -2 0.82219087E-01 0.11318268E+04</pdfrwt>
<totfact> 0.79628605E+01</totfact>
</mgrwt>
<rwgt>
<wgt id='morphing_basis_vector_1'> +1.9815885e-04 </wgt>
<wgt id='morphing_basis_vector_2'> +1.2819978e-04 </wgt>
<wgt id='morphing_basis_vector_3'> +1.9632163e-04 </wgt>
<wgt id='morphing_basis_vector_4'> +1.2270111e-04 </wgt>
<wgt id='morphing_basis_vector_5'> +1.9702420e-04 </wgt>
</rwgt>
</event>
<event>
 4      1 +7.8865000e-07 1.10801200e+03 7.81860800e-03 8.58783300e-02
        2 -1    0    0  501    0 +0.0000000000e+00 +0.0000000000e+00 +1.3025794862e+03 1.3025794862e+03 0.0000000000e+00 0.0000e+00 -1.0000e+00
       -2 -1    0    0    0  501 -0.0000000000e+00 -0.0000000000e+00 -2.3562701673e+02 2.3562701673e+02 0.0000000000e+00 0.0000e+00 1.0000e+00
      -13  1    1    2    0    0 +1.1389440526e+02 -1.9607982653e+02 -1.6825138650e+02 2.8236105075e+02 0.0000000000e+00 0.0000e+00 1.0000e+00
       13  1    1    2    0    0 -1.1389440526e+02 +1.9607982653e+02 +1.2352038560e+03 1.2558454522e+03 0.0000000000e+00 0.0000e+00 -1.0000e+00
<mgrwt>
<rscale>  0 0.11080125E+04</rscale>
<asrwt>0</asrwt>
<pdfrwt beam="1">  1        2 0.20039684E+00 0.11080125E+04</pdfrwt>
<pdfrwt beam="2">  1       -2 0.36250311E-01 0.11080125E+04</pdfrwt>
<totfact> 0.14296198E+02</totfact>
</mgrwt>
<rwgt>
<wgt id='morphing_basis_vector_1'> +1.8210407e-04 </wgt>
<wgt id='morphing_basis_vector_2'> +1.1548534e-04 </wgt>
<wgt id='morphing_basis_vector_3'> +1.7952867e-04 </wgt>
<wgt id='morphing_basis_vector_4'> +1.1350137e-04 </wgt>
<wgt id='morphing_basis_vector_5'> +1.8001772e-04 </wgt>
</rwgt>
</event>
<event>
 4      1 +7.8865000e-07 1.15635800e+03 7.81860800e-03 8.54821700e-02
        2 -1    0    0  501    0 +0.0000000000e+00 +0.0000000000e+00 +1.4524005922e+03 1.4524005922e+03 0.0000000000e+00 0.0000e+00 -1.0000e+00
       -2 -1    0    0    0  501 -0.0000000000e+00 -0.0000000000e+00 -2.3016442308e+02 2.3016442308e+02 0.0000000000e+00 0.0000e+00 1.0000e+00
      -13  1    1    2    0    0 -4.2610435234e+02 +3.1813765856e+02 +9.4136906057e+02 1.0811809271e+03 0.0000000000e+00 0.0000e+00 1.0000e+00
       13  1    1    2    0    0 +4.2610435234e+02 -3.1813765856e+02 +2.8086710856e+02 6.0138408820e+02 0.0000000000e+00 0.0000e+00 -1.0000e+00
<mgrwt>
<rscale>  0 0.11563580E+04</rscale>
<asrwt>0</asrwt>
<pdfrwt beam="1">  1        2 0.22344624E+00 0.11563580E+04</pdfrwt>
<pdfrwt beam="2">  1       -2 0.35409912E-01 0.11563580E+04</pdfrwt>
<totfact> 0.12236180E+02</totfact>
</mgrwt>
<rwgt>
<wgt id='morphing_basis_vector_1'> +2.4235352e-04 </wgt>
<wgt id='morphing_basis_vector_2'> +2.2218702e-04 </wgt>
<wgt id='morphing_basis_vector_3'> +2.4393908e-04 </wgt>
<wgt id='morphing_basis_vector_4'> +8.7975765e-05 </wgt>
<wgt id='morphing_basis_vector_5'> +2.1277203e-04 </wgt>
</rwgt>
</event>
<event>
 4      1 +7.8865000e-07 1.11467100e+03 7.81860800e-03 8.58225300e-02
        2 -1    0    0  501    0 +0.0000000000e+00 +0.0000000000e+00 +1.1476388927e+03 1.1476388927e+03 0.0000000000e+00 0.0000e+00 -1.0000e+00
       -2 -1    0    0    0  501 -0.0000000000e+00 -0.0000000000e+00 -2.7066235053e+02 2.7066235053e+02 0.0000000000e+00 0.0000e+00 1.0000e+00
      -13  1    1    2    0    0 -3.4580393804e+02 -3.0981711371e+02 +4.6194996183e+01 4.6658438163e+02 0.0000000000e+00 0.0000e+00 1.0000e+00
       13  1    1    2    0    0 +3.4580393804e+02 +3.0981711371e+02 +8.3078154600e+02 9.5171686162e+02 0.0000000000e+00 0.0000e+00 -1.0000e+00
<mgrwt>
<rscale>  0 0.11146706E+04</rscale>
<asrwt>0</asrwt>
<pdfrwt beam="1">  1        2 0.17655983E+00 0.11146706E+04</pdfrwt>
<pdfrwt beam="2">  1       -2 0.41640362E-01 0.11146706E+04</pdfrwt>
<totfact> 0.13590803E+02</totfact>
</mgrwt>
<rwgt>
<wgt id='morphing_basis_vector_1'> +1.8683438e-04 </wgt>
<wgt id='morphing_basis_vector_2'> +1.1998610e-04 </wgt>
<wgt id='morphing_basis_vector_3'> +1.8447214e-04 </wgt>
<wgt id='morphing_basis_vector_4'> +1.1545245e-04 </wgt>
<wgt id='morphing_basis_vector_5'> +1.8462265e-04 </wgt>
</rwgt>
</event>
<event>
 4      1 +7.8865000e-07 1.21131200e+03 7.81860800e-03 8.50558800e-02
        2 -1    0    0  501    0 +0.0000000000e+00 +0.0000000000e+00 +1.8640141046e+03 1.8640141046e+03 0.0000000000e+00 0.0000e+00 1.0000e+00
       -2 -1    0    0    0  501 -0.0000000000e+00 -0.0000000000e+00 -1.9678986983e+02 1.9678986983e+02 0.0000000000e+00 0.0000e+00 -1.0000e+00
      -13  1    1    2    0    0 +5.0825715063e+02 -3.2622850284e+02 +7.5623150107e+02 9.6779979874e+02 0.0000000000e+00 0.0000e+00 1.0000e+00
       13  1    1    2    0    0 -5.0825715063e+02 +3.2622850284e+02 +9.1099273371e+02 1.0930041757e+03 0.0000000000e+00 0.0000e+00 -1.0000e+00
<mgrwt>
<rscale>  0 0.12113118E+04</rscale>
<asrwt>0</asrwt>
<pdfrwt beam="1">  1        2 0.28677139E+00 0.12113118E+04</pdfrwt>
<pdfrwt beam="2">  1       -2 0.30275366E-01 0.12113118E+04</pdfrwt>
<totfact> 0.95385738E+01</totfact>
</mgrwt>
<rwgt>
<wgt id='morphing_basis_vector_1'> +2.6175588e-04 </wgt>
<wgt id='morphing_basis_vector_2'> +1.8421277e-04 </wgt>
<wgt id='morphing_basis_vector_3'> +2.6368363e-04 </wgt>
<wgt id='morphing_basis_vector_4'> +1.5356817e-04 </wgt>
<wgt id='morphing_basis_vector_5'> +2.6212899e-04 </wgt>
</rwgt>
</event>
<event>
 4      1 +7.8865000e-07 1.17526600e+03 7.81860800e-03 8.53327300e-02
        2 -1    0    0  501    0 +0.0000000000e+00 +0.0000000000e+00 +2.5623814518e+02 2.5623814518e+02 0.0000000000e+00 0.0000e+00 -1.0000e+00
       -2 -1    0    0    0  501 -0.0000000000e+00 -0.0000000000e+00 -1.3476231384e+03 1.3476231384e+03 0.0000000000e+00 0.0000e+00 1.0000e+00
      -13  1    1    2    0    0 +5.5345112372e+02 -1.5144190859e+02 -3.7269733011e+02 6.8421202700e+02 0.0000000000e+00 0.0000e+00 1.0000e+00
       13  1    1    2    0    0 -5.5345112372e+02 +1.5144190859e+02 -7.1868766310e+02 9.1964925657e+02 0.0000000000e+00 0.0000e+00 -1.0000e+00
<mgrwt>
<rscale>  0 0.11752658E+04</rscale>
<asrwt>0</asrwt>
<pdfrwt beam="1">  1        2 0.39421253E-01 0.11752658E+04</pdfrwt>
<pdfrwt beam="2">  1       -2 0.20732663E+00 0.11752658E+04</pdfrwt>
<totfact> 0.16543753E+01</totfact>
</mgrwt>
<rwgt>
<wgt id='morphing_basis_vector_1'> +2.4457880e-04 </wgt>
<wgt id='morphing_basis_vector_2'> +1.9715180e-04 </wgt>
<wgt id='morphing_basis_vector_3'> +2.4603524e-04 </wgt>
<wgt id='morphing_basis_vector_4'> +1.1637809e-04 </wgt>
<wgt id='morphing_basis_vector_5'> +2.2939866e-04 </wgt>
</rwgt>
</event>
<event>
 4      1 +7.8865000e-07 1.26247300e+03 7.81860800e-03 8.46798700e-02
        2 -1    0    0  501    0 +0.0000000000e+00 +0.0000000000e+00 +7.6256466869e+02 7.6256466869e+02 0.0000000000e+00 0.0000e+00 -1.0000e+00
       -2 -1    0    0    0  501 -0.0000000000e+00 -0.0000000000e+00 -5.2252580493e+02 5.2252580493e+02 0.0000000000e+00 0.0000e+00 1.0000e+00
      -13  1    1    2    0    0 -5.2222623755e+02 -2.1358295891e+02 -1.6810947341e+02 5.8872635288e+02 0.0000000000e+00 0.0000e+00 1.0000e+00
       13  1    1    2    0    0 +5.2222623755e+02 +2.1358295891e+02 +4.0814833716e+02 6.9636412074e+02 0.0000000000e+00 0.0000e+00 -1.0000e+00
<mgrwt>
<rscale>  0 0.12624733E+04</rscale>
<asrwt>0</asrwt>
<pdfrwt beam="1">  1        2 0.11731764E+00 0.12624733E+04</pdfrwt>
<pdfrwt beam="2">  1       -2 0.80388585E-01 0.12624733E+04</pdfrwt>
<totfact> 0.61905519E+01</totfact>
</mgrwt>
<rwgt>
<wgt id='morphing_basis_vector_1'> +2.9978999e-04 </wgt>
<wgt id='morphing_basis_vector_2'> +1.9696171e-04 </wgt>
<wgt id='morphing_basis_vector_3'> +3.0343436e-04 </wgt>
<wgt id='morphing_basis_vector_4'> +1.9408253e-04 </wgt>
<wgt id='morphing_basis_vector_5'> +3.1287208e-04 </wgt>
</rwgt>
</event>
<event>
 4      1 +7.8865000e-07 1.21333200e+03 7.81860800e-03 8.50406600e-02
        2 -1    0    0  501    0 +0.0000000000e+00 +0.0000000000e+00 +1.6680738049e+03 1.6680738049e+03 0.0000000000e+00 0.0000e+00 -1.0000e+00
       -2 -1    0    0    0  501 -0.0000000000e+00 -0.0000000000e+00 -2.2064001829e+02 2.2064001829e+02 0.0000000000e+00 0.0000e+00 1.0000e+00
      -13  1    1    2    0    0 +5.7776942753e+02 +6.3073356286e+01 +4.5298759268e+02 7.3688093935e+02 0.0000000000e+00 0.0000e+00 1.0000e+00
       13  1    1    2    0    0 -5.7776942753e+02 -6.3073356286e+01 +9.9444619398e+02 1.1518328839e+03 0.0000000000e+00 0.0000e+00 -1.0000e+00
<mgrwt>
<rscale>  0 0.12133323E+04</rscale>
<asrwt>0</asrwt>
<pdfrwt beam="1">  1        2 0.25662673E+00 0.12133323E+04</pdfrwt>
<pdfrwt beam="2">  1       -2 0.33944619E-01 0.12133323E+04</pdfrwt>
<totfact> 0.99786585E+01</totfact>
</mgrwt>
<rwgt>
<wgt id='morphing_basis_vector_1'> +2.5943724e-04 </wgt>
<wgt id='morphing_basis_vector_2'> +1.7346953e-04 </wgt>
<wgt id='morphing_basis_vector_3'> +2.6090340e-04 </wgt>
<wgt id='morphing_basis_vector_4'> +1.6150693e-04 </wgt>
<wgt id='morphing_basis_vector_5'> +2.6444935e-04 </wgt>
</rwgt>
</event>
<event>
 4      1 +7.8865000e-07 1.18944000e+03 7.81860800e-03 8.52226300e-02
        2 -1    0    0  501    0 +0.0000000000e+00 +0.0000000000e+00 +3.9829329109e+02 3.9829329109e+02 0.0000000000e+00 0.0000e+00 -1.0000e+00
       -2 -1    0    0    0  501 -0.0000000000e+00 -0.0000000000e+00 -8.8801923398e+02 8.8801923398e+02 0.0000000000e+00 0.0000e+00 1.0000e+00
      -13  1    1    2    0    0 +1.5920561309e+02 -5.4623669454e+02 -4.3208438565e+02 7.1443535048e+02 0.0000000000e+00 0.0000e+00 1.0000e+00
       13  1    1    2    0    0 -1.5920561309e+02 +5.4623669454e+02 -5.7641557239e+01 5.7187717459e+02 0.0000000000e+00 0.0000e+00 -1.0000e+00
<mgrwt>
<rscale>  0 0.11894404E+04</rscale>
<asrwt>0</asrwt>
<pdfrwt beam="1">  1        2 0.61275891E-01 0.11894404E+04</pdfrwt>
<pdfrwt beam="2">  1       -2 0.13661834E+00 0.11894404E+04</pdfrwt>
<totfact> 0.35869381E+01</totfact>
</mgrwt>
<rwgt>
<wgt id='morphing_basis_vector_1'> +2.4057651e-04 </wgt>
<wgt id='morphing_basis_vector_2'> +1.6039638e-04 </wgt>
<wgt id='morphing_basis_vector_3'> +2.4098003e-04 </wgt>
<wgt id='morphing_basis_vector_4'> +1.4860643e-04 </wgt>
<wgt id='morphing_basis_vector_5'> +2.4311373e-04 </wgt>
</rwgt>
</event>
<event>
 4      1 +7.8865000e-07 1.19981400e+03 7.81860800e-03 8.51430800e-02
        2 -1    0    0  501    0 +0.0000000000e+00 +0.0000000000e+00 +5.9499587047e+02 5.9499587047e+02 0.0000000000e+00 0.0000e+00 -1.0000e+00
       -2 -1    0    0    0  501 -0.0000000000e+00 -0.0000000000e+00 -6.0485866418e+02 6.0485866418e+02 0.0000000000e+00 0.0000e+00 1.0000e+00
      -13  1    1    2    0    0 -3.7997035850e+02 +4.0354289871e+02 -2.3442567048e+02 6.0181370824e+02 0.0000000000e+00 0.0000e+00 1.0000e+00
       13  1    1    2    0    0 +3.7997035850e+02 -4.0354289871e+02 +2.2456287677e+02 5.9804082642e+02 0.0000000000e+00 0.0000e+00 -1.0000e+00
<mgrwt>
<rscale>  0 0.11998140E+04</rscale>
<asrwt>0</asrwt>
<pdfrwt beam="1">  1        2 0.91537827E-01 0.11998140E+04</pdfrwt>
<pdfrwt beam="2">  1       -2 0.93055179E-01 0.11998140E+04</pdfrwt>
<totfact> 0.59957029E+01</totfact>
</mgrwt>
<rwgt>
<wgt id='morphing_basis_vector_1'> +2.4765814e-04 </wgt>
<wgt id='morphing_basis_vector_2'> +1.6305152e-04 </wgt>
<wgt id='morphing_basis_vector_3'> +2.4838218e-04 </wgt>
<wgt id='morphing_basis_vector_4'> +1.5578143e-04 </wgt>
<wgt id='morphing_basis_vector_5'> +2.5232859e-04 </wgt>
</rwgt>
</event>
<event>
 4      1 +7.8865000e-07 1.20098600e+03 7.81860800e-03 8.51341400e-02
        2 -1    0    0  501    0 +0.0000000000e+00 +0.0000000000e+00 +4.2764750634e+02 4.2764750634e+02 0.0000000000e+00 0.0000e+00 1.0000e+00
       -2 -1    0    0    0  501 -0.0000000000e+00 -0.0000000000e+00 -8.4319915325e+02 8.4319915325e+02 0.0000000000e+00 0.0000e+00 -1.0000e+00
      -13  1    1    2    0    0 +4.8944278370e+01 +2.7134162950e+02 -7.7225744591e+02 8.2000206405e+02 0.0000000000e+00 0.0000e+00 -1.0000e+00
       13  1    1    2    0    0 -4.8944278370e+01 -2.7134162950e+02 +3.5670579900e+02 4.5084459553e+02 0.0000000000e+00 0.0000e+00 1.0000e+00
<mgrwt>
<rscale>  0 0.12009863E+04</rscale>
<asrwt>0</asrwt>
<pdfrwt beam="1">  1        2 0.65791925E-01 0.12009863E+04</pdfrwt>
<pdfrwt beam="2">  1       -2 0.12972295E+00 0.12009863E+04</pdfrwt>
<totfact> 0.38067665E+01</totfact>
</mgrwt>
<rwgt>
<wgt id='morphing_basis_vector_1'> +2.4668327e-04 </wgt>
<wgt id='morphing_basis_vector_2'> +1.5799018e-04 </wgt>
<wgt id='morphing_basis_vector_3'> +2.4720716e-04 </wgt>
<wgt id='morphing_basis_vector_4'> +1.5967115e-04 </wgt>
<wgt id='morphing_basis_vector_5'> +2.5359382e-04 </wgt>
</rwgt>
</event>
<event>
 4      1 +7.8865000e-07 1.07704800e+03 7.81860800e-03 8.61432000e-02
        2 -1    0    0  501    0 +0.0000000000e+00 +0.0000000000e+00 +3.8924649668e+02 3.8924649668e+02 0.0000000000e+00 0.0000e+00 1.0000e+00
       -2 -1    0    0    0  501 -0.0000000000e+00 -0.0000000000e+00 -7.4504985384e+02 7.4504985384e+02 0.0000000000e+00 0.0000e+00 -1.0000e+00
      -13  1    1    2    0    0 +8.9231808811e+01 +5.1138678807e+02 -2.7005443527e+01 5.1981540637e+02 0.0000000000e+00 0.0000e+00 1.0000e+00
       13  1    1    2    0    0 -8.9231808811e+01 -5.1138678807e+02 -3.2879791363e+02 6.1448094415e+02 0.0000000000e+00 0.0000e+00 -1.0000e+00
<mgrwt>
<rscale>  0 0.10770479E+04</rscale>
<asrwt>0</asrwt>
<pdfrwt beam="1">  1        2 0.59884077E-01 0.10770479E+04</pdfrwt>
<pdfrwt beam="2">  1       -2 0.11462305E+00 0.10770479E+04</pdfrwt>
<totfact> 0.59029346E+01</totfact>
</mgrwt>
<rwgt>
<wgt id='morphing_basis_vector_1'> +1.7843054e-04 </wgt>
<wgt id='morphing_basis_vector_2'> +1.4768962e-04 </wgt>
<wgt id='morphing_basis_vector_3'> +1.7537329e-04 </wgt>
<wgt id='morphing_basis_vector_4'> +7.6842068e-05 </wgt>
<wgt id='morphing_basis_vector_5'> +1.5793065e-04 </wgt>
</rwgt>
</event>
<event>
 4      1 +7.8865000e-07 1.23362600e+03 7.81860800e-03 8.48895300e-02
        2 -1    0    0  501    0 +0.0000000000e+00 +0.0000000000e+00 +1.2499793258e+03 1.2499793258e+03 0.0000000000e+00 0.0000e+00 -1.0000e+00
       -2 -1    0    0    0  501 -0.0000000000e+00 -0.0000000000e+00 -3.0437143413e+02 3.0437143413e+02 0.0000000000e+00 0.0000e+00 1.0000e+00
      -13  1    1    2    0    0 +3.0440925296e+02 +2.1061141534e+02 -1.4886322189e+02 3.9897671661e+02 0.0000000000e+00 0.0000e+00 1.0000e+00
       13  1    1    2    0    0 -3.0440925296e+02 -2.1061141534e+02 +1.0944711136e+03 1.1553740433e+03 0.0000000000e+00 0.0000e+00 -1.0000e+00
<mgrwt>
<rscale>  0 0.12336256E+04</rscale>
<asrwt>0</asrwt>
<pdfrwt beam="1">  1        2 0.19230451E+00 0.12336256E+04</pdfrwt>
<pdfrwt beam="2">  1       -2 0.46826375E-01 0.12336256E+04</pdfrwt>
<totfact> 0.93858271E+01</totfact>
</mgrwt>
<rwgt>
<wgt id='morphing_basis_vector_1'> +2.7316053e-04 </wgt>
<wgt id='morphing_basis_vector_2'> +1.7569409e-04 </wgt>
<wgt id='morphing_basis_vector_3'> +2.7511545e-04 </wgt>
<wgt id='morphing_basis_vector_4'> +1.7859855e-04 </wgt>
<wgt id='morphing_basis_vector_5'> +2.8400643e-04 </wgt>
</rwgt>
</event>
<event>
 4      1 +7.8865000e-07 1.21286000e+03 7.81860800e-03 8.50442200e-02
        2 -1    0    0  501    0 +0.0000000000e+00 +0.0000000000e+00 +1.3199410988e+03 1.3199410988e+03 0.0000000000e+00 0.0000e+00 -1.0000e+00
       -2 -1    0    0    0  501 -0.0000000000e+00 -0.0000000000e+00 -2.7861648018e+02 2.7861648018e+02 0.0000000000e+00 0.0000e+00 1.0000e+00
      -13  1    1    2    0    0 +4.6050888036e+02 -2.8549137789e+01 +1.9737436577e+00 4.6139720180e+02 0.0000000000e+00 0.0000e+00 1.0000e+00
       13  1    1    2    0    0 -4.6050888036e+02 +2.8549137789e+01 +1.0393508749e+03 1.1371603772e+03 0.0000000000e+00 0.0000e+00 -1.0000e+00
<mgrwt>
<rscale>  0 0.12128600E+04</rscale>
<asrwt>0</asrwt>
<pdfrwt beam="1">  1        2 0.20306786E+00 0.12128600E+04</pdfrwt>
<pdfrwt beam="2">  1       -2 0.42864075E-01 0.12128600E+04</pdfrwt>
<totfact> 0.10150883E+02</totfact>
</mgrwt>
<rwgt>
<wgt id='morphing_basis_vector_1'> +2.5647007e-04 </wgt>
<wgt id='morphing_basis_vector_2'> +1.6544555e-04 </wgt>
<wgt id='morphing_basis_vector_3'> +2.5754825e-04 </wgt>
<wgt id='morphing_basis_vector_4'> +1.6569905e-04 </wgt>
<wgt id='morphing_basis_vector_5'> +2.6431851e-04 </wgt>
</rwgt>
</event>
<event>
 4      1 +7.8865000e-07 1.15926300e+03 7.81860800e-03 8.54590100e-02
        2 -1    0    0  501    0 +0.0000000000e+00 +0.0000000000e+00 +2.1690071187e+03 2.1690071187e+03 0.0000000000e+00 0.0000e+00 -1.0000e+00
       -2 -1    0    0    0  501 -0.0000000000e+00 -0.0000000000e+00 -1.5489705522e+02 1.5489705522e+02 0.0000000000e+00 0.0000e+00 1.0000e+00
      -13  1    1    2    0    0 -1.6601164547e+02 -5.3414293161e+02 +7.0234809018e+02 8.9786489941e+02 0.0000000000e+00 0.0000e+00 1.0000e+00
       13  1    1    2    0    0 +1.6601164547e+02 +5.3414293161e+02 +1.3117619733e+03 1.4260392745e+03 0.0000000000e+00 0.0000e+00 -1.0000e+00
<mgrwt>
<rscale>  0 0.11592632E+04</rscale>
<asrwt>0</asrwt>
<pdfrwt beam="1">  1        2 0.33369338E+00 0.11592632E+04</pdfrwt>
<pdfrwt beam="2">  1       -2 0.23830318E-01 0.11592632E+04</pdfrwt>
<totfact> 0.98069702E+01</totfact>
</mgrwt>
<rwgt>
<wgt id='morphing_basis_vector_1'> +2.1865898e-04 </wgt>
<wgt id='morphing_basis_vector_2'> +1.4612803e-04 </wgt>
<wgt id='morphing_basis_vector_3'> +2.1790397e-04 </wgt>
<wgt id='morphing_basis_vector_4'> +1.3276691e-04 </wgt>
<wgt id='morphing_basis_vector_5'> +2.1796586e-04 </wgt>
</rwgt>
</event>
<event>
 4      1 +7.8865000e-07 1.14741600e+03 7.81860800e-03 8.55538900e-02
        2 -1    0    0  501    0 +0.0000000000e+00 +0.0000000000e+00 +6.8340505227e+02 6.8340505227e+02 0.0000000000e+00 0.0000e+00 -1.0000e+00
       -2 -1    0    0    0  501 -0.0000000000e+00 -0.0000000000e+00 -4.8161879209e+02 4.8161879209e+02 0.0000000000e+00 0.0000e+00 1.0000e+00
      -13  1    1    2    0    0 -1.4060793177e+01 -2.8794558987e+02 -4.0273311433e+02 4.9528207115e+02 0.0000000000e+00 0.0000e+00 1.0000e+00
       13  1    1    2    0    0 +1.4060793177e+01 +2.8794558987e+02 +6.0451937451e+02 6.6974177321e+02 0.0000000000e+00 0.0000e+00 -1.0000e+00
<mgrwt>
<rscale>  0 0.11474157E+04</rscale>
<asrwt>0</asrwt>
<pdfrwt beam="1">  1        2 0.10513924E+00 0.11474157E+04</pdfrwt>
<pdfrwt beam="2">  1       -2 0.74095199E-01 0.11474157E+04</pdfrwt>
<totfact> 0.85795736E+01</totfact>
</mgrwt>
<rwgt>
<wgt id='morphing_basis_vector_1'> +2.0767288e-04 </wgt>
<wgt id='morphing_basis_vector_2'> +1.3233453e-04 </wgt>
<wgt id='morphing_basis_vector_3'> +2.0625353e-04 </wgt>
<wgt id='morphing_basis_vector_4'> +1.3162380e-04 </wgt>
<wgt id='morphing_basis_vector_5'> +2.0894884e-04 </wgt>
</rwgt>
</event>
<event>
 4      1 +7.8865000e-07 1.07198900e+03 7.81860800e-03 8.61873500e-02
        2 -1    0    0  501    0 +0.0000000000e+00 +0.0000000000e+00 +9.1955245568e+02 9.1955245568e+02 0.0000000000e+00 0.0000e+00 1.0000e+00
       -2 -1    0    0    0  501 -0.0000000000e+00 -0.0000000000e+00 -3.1242369041e+02 3.1242369041e+02 0.0000000000e+00 0.0000e+00 -1.0000e+00
      -13  1    1    2    0    0 -1.4306945075e+02 -3.5611952202e+02 -1.2644315891e+02 4.0407654490e+02 0.0000000000e+00 0.0000e+00 -1.0000e+00
       13  1    1    2    0    0 +1.4306945075e+02 +3.5611952202e+02 +7.3357192418e+02 8.2789960119e+02 0.0000000000e+00 0.0000e+00 1.0000e+00
<mgrwt>
<rscale>  0 0.10719888E+04</rscale>
<asrwt>0</asrwt>
<pdfrwt beam="1">  1        2 0.14146961E+00 0.10719888E+04</pdfrwt>
<pdfrwt beam="2">  1       -2 0.48065184E-01 0.10719888E+04</pdfrwt>
<totfact> 0.14316646E+02</totfact>
</mgrwt>
<rwgt>
<wgt id='morphing_basis_vector_1'> +1.6111615e-04 </wgt>
<wgt id='morphing_basis_vector_2'> +1.0218564e-04 </wgt>
<wgt id='morphing_basis_vector_3'> +1.5767486e-04 </wgt>
<wgt id='morphing_basis_vector_4'> +9.8268858e-05 </wgt>
<wgt id='morphing_basis_vector_5'> +1.5622442e-04 </wgt>
</rwgt>
</event>
<event>
 4      1 +7.8865000e-07 1.17819700e+03 7.81860800e-03 8.53098300e-02
        2 -1    0    0  501    0 +0.0000000000e+00 +0.0000000000e+00 +7.2571933400e+02 7.2571933400e+02 0.0000000000e+00 0.0000e+00 -1.0000e+00
       -2 -1    0    0    0  501 -0.0000000000e+00 -0.0000000000e+00 -4.7819740504e+02 4.7819740504e+02 0.0000000000e+00 0.0000e+00 1.0000e+00
      -13  1    1    2    0    0 +3.2001250936e+02 -3.2907921138e+02 -2.5353636153e+02 5.2438708997e+02 0.0000000000e+00 0.0000e+00 1.0000e+00
       13  1    1    2    0    0 -3.2001250936e+02 +3.2907921138e+02 +5.0105829049e+02 6.7952964908e+02 0.0000000000e+00 0.0000e+00 -1.0000e+00
<mgrwt>
<rscale>  0 0.11781971E+04</rscale>
<asrwt>0</asrwt>
<pdfrwt beam="1">  1        2 0.11164913E+00 0.11781971E+04</pdfrwt>
<pdfrwt beam="2">  1       -2 0.73568831E-01 0.11781971E+04</pdfrwt>
<totfact> 0.80755568E+01</totfact>
</mgrwt>
<rwgt>
<wgt id='morphing_basis_vector_1'> +2.2990020e-04 </wgt>
<wgt id='morphing_basis_vector_2'> +1.4797927e-04 </wgt>
<wgt id='morphing_basis_vector_3'> +2.2959235e-04 </wgt>
<wgt id='morphing_basis_vector_4'> +1.4650037e-04 </wgt>
<wgt id='morphing_basis_vector_5'> +2.3377268e-04 </wgt>
</rwgt>
</event>
<event>
 4      1 +7.8865000e-07 1.21374000e+03 7.81860800e-03 8.50376000e-02
        2 -1    0    0  501    0 +0.0000000000e+00 +0.0000000000e+00 +3.7360540905e+03 3.7360540905e+03 0.0000000000e+00 0.0000e+00 1.0000e+00
       -2 -1    0    0    0  501 -0.0000000000e+00 -0.0000000000e+00 -9.8577541045e+01 9.8577541045e+01 0.0000000000e+00 0.0000e+00 -1.0000e+00
      -13  1    1    2    0    0 +5.4320249849e+02 -4.4639767501e+01 +9.7554406675e+02 1.1174738876e+03 0.0000000000e+00 0.0000e+00 -1.0000e+00
       13  1    1    2    0    0 -5.4320249849e+02 +4.4639767501e+01 +2.6619324827e+03 2.7171577440e+03 0.0000000000e+00 0.0000e+00 1.0000e+00
<mgrwt>
<rscale>  0 0.12137397E+04</rscale>
<asrwt>0</asrwt>
<pdfrwt beam="1">  1        2 0.57477744E+00 0.12137397E+04</pdfrwt>
<pdfrwt beam="2">  1       -2 0.15165778E-01 0.12137397E+04</pdfrwt>
<totfact> 0.19990086E+01</totfact>
</mgrwt>
<rwgt>
<wgt id='morphing_basis_vector_1'> +2.5824225e-04 </wgt>
<wgt id='morphing_basis_vector_2'> +1.6911705e-04 </wgt>
<wgt id='morphing_basis_vector_3'> +2.5951026e-04 </wgt>
<wgt id='morphing_basis_vector_4'> +1.6436600e-04 </wgt>
<wgt id='morphing_basis_vector_5'> +2.6500428e-04 </wgt>
</rwgt>
</event>
<event>
 4      1 +7.8865000e-07 1.08558600e+03 7.81860800e-03 8.60692600e-02
        2 -1    0    0  501    0 +0.0000000000e+00 +0.0000000000e+00 +4.0671269520e+02 4.0671269520e+02 0.0000000000e+00 0.0000e+00 -1.0000e+00
       -2 -1    0    0    0  501 -0.0000000000e+00 -0.0000000000e+00 -7.2440374883e+02 7.2440374883e+02 0.0000000000e+00 0.0000e+00 1.0000e+00
      -13  1    1    2    0    0 +1.5016818372e+01 -1.5094019406e+02 -7.0187148368e+02 7.1807522351e+02 0.0000000000e+00 0.0000e+00 1.0000e+00
       13  1    1    2    0    0 -1.5016818372e+01 +1.5094019406e+02 +3.8418043005e+02 4.1304122052e+02 0.0000000000e+00 0.0000e+00 -1.0000e+00
<mgrwt>
<rscale>  0 0.10855859E+04</rscale>
<asrwt>0</asrwt>
<pdfrwt beam="1">  1        2 0.62571184E-01 0.10855859E+04</pdfrwt>
<pdfrwt beam="2">  1       -2 0.11144673E+00 0.10855859E+04</pdfrwt>
<totfact> 0.60283610E+01</totfact>
</mgrwt>
<rwgt>
<wgt id='morphing_basis_vector_1'> +1.6867422e-04 </wgt>
<wgt id='morphing_basis_vector_2'> +1.0665954e-04 </wgt>
<wgt id='morphing_basis_vector_3'> +1.6553791e-04 </wgt>
<wgt id='morphing_basis_vector_4'> +1.0404469e-04 </wgt>
<wgt id='morphing_basis_vector_5'> +1.6492911e-04 </wgt>
</rwgt>
</event>
<event>
 4      1 +7.8865000e-07 1.21948000e+03 7.81860800e-03 8.49945600e-02
        2 -1    0    0  501    0 +0.0000000000e+00 +0.0000000000e+00 +1.8517913566e+03 1.8517913566e+03 0.0000000000e+00 0.0000e+00 -1.0000e+00
       -2 -1    0    0    0  501 -0.0000000000e+00 -0.0000000000e+00 -2.0076915563e+02 2.0076915563e+02 0.0000000000e+00 0.0000e+00 1.0000e+00
      -13  1    1    2    0    0 -4.6330792915e+02 -1.1312955941e+02 +1.8607104694e+02 5.1193258241e+02 0.0000000000e+00 0.0000e+00 1.0000e+00
       13  1    1    2    0    0 +4.6330792915e+02 +1.1312955941e+02 +1.4649511541e+03 1.5406279299e+03 0.0000000000e+00 0.0000e+00 -1.0000e+00
<mgrwt>
<rscale>  0 0.12194795E+04</rscale>
<asrwt>0</asrwt>
<pdfrwt beam="1">  1        2 0.28489097E+00 0.12194795E+04</pdfrwt>
<pdfrwt beam="2">  1       -2 0.30887564E-01 0.12194795E+04</pdfrwt>
<totfact> 0.93439699E+01</totfact>
</mgrwt>
<rwgt>
<wgt id='morphing_basis_vector_1'> +2.6190304e-04 </wgt>
<wgt id='morphing_basis_vector_2'> +1.6926100e-04 </wgt>
<wgt id='morphing_basis_vector_3'> +2.6328353e-04 </wgt>
<wgt id='morphing_basis_vector_4'> +1.6938850e-04 </wgt>
<wgt id='morphing_basis_vector_5'> +2.7045792e-04 </wgt>
</rwgt>
</event>
<event>
 4      1 +7.8865000e-07 1.13624200e+03 7.81860800e-03 8.56445000e-02
        2 -1    0    0  501    0 +0.0000000000e+00 +0.0000000000e+00 +5.0263585323e+02 5.0263585323e+02 0.0000000000e+00 0.0000e+00 -1.0000e+00
       -2 -1    0    0    0  501 -0.0000000000e+00 -0.0000000000e+00 -6.4213729607e+02 6.4213729607e+02 0.0000000000e+00 0.0000e+00 1.0000e+00
      -13  1    1    2    0    0 +7.3482242275e+00 +5.4277835431e+02 -2.3863659976e+02 5.9296691733e+02 0.0000000000e+00 0.0000e+00 1.0000e+00
       13  1    1    2    0    0 -7.3482242275e+00 -5.4277835431e+02 +9.9135156926e+01 5.5180623197e+02 0.0000000000e+00 0.0000e+00 -1.0000e+00
<mgrwt>
<rscale>  0 0.11362416E+04</rscale>
<asrwt>0</asrwt>
<pdfrwt beam="1">  1        2 0.77328593E-01 0.11362416E+04</pdfrwt>
<pdfrwt beam="2">  1       -2 0.98790353E-01 0.11362416E+04</pdfrwt>
<totfact> 0.63561289E+01</totfact>
</mgrwt>
<rwgt>
<wgt id='morphing_basis_vector_1'> +2.0241626e-04 </wgt>
<wgt id='morphing_basis_vector_2'> +1.3417335e-04 </wgt>
<wgt id='morphing_basis_vector_3'> +2.0081998e-04 </wgt>
<wgt id='morphing_basis_vector_4'> +1.2251465e-04 </wgt>
<wgt id='morphing_basis_vector_5'> +2.0017361e-04 </wgt>
</rwgt>
</event>
<event>
 4      1 +7.8865000e-07 1.22163800e+03 7.81860800e-03 8.49784300e-02
        2 -1    0    0  501    0 +0.0000000000e+00 +0.0000000000e+00 +1.1877674079e+03 1.1877674079e+03 0.0000000000e+00 0.0000e+00 -1.0000e+00
       -2 -1    0    0    0  501 -0.0000000000e+00 -0.0000000000e+00 -3.1411884794e+02 3.1411884794e+02 0.0000000000e+00 0.0000e+00 1.0000e+00
      -13  1    1    2    0    0 +6.6378000435e+01 +3.8641897167e+02 -1.3899657327e+02 4.1598762961e+02 0.0000000000e+00 0.0000e+00 1.0000e+00
       13  1    1    2    0    0 -6.6378000435e+01 -3.8641897167e+02 +1.0126451333e+03 1.0858986263e+03 0.0000000000e+00 0.0000e+00 -1.0000e+00
<mgrwt>
<rscale>  0 0.12216385E+04</rscale>
<asrwt>0</asrwt>
<pdfrwt beam="1">  1        2 0.18273345E+00 0.12216385E+04</pdfrwt>
<pdfrwt beam="2">  1       -2 0.48325977E-01 0.12216385E+04</pdfrwt>
<totfact> 0.96048615E+01</totfact>
</mgrwt>
<rwgt>
<wgt id='morphing_basis_vector_1'> +2.6328320e-04 </wgt>
<wgt id='morphing_basis_vector_2'> +1.6928694e-04 </wgt>
<wgt id='morphing_basis_vector_3'> +2.6470330e-04 </wgt>
<wgt id='morphing_basis_vector_4'> +1.7131504e-04 </wgt>
<wgt id='morphing_basis_vector_5'> +2.7253139e-04 </wgt>
</rwgt>
</event>
<event>
 4      1 +7.8865000e-07 1.22065100e+03 7.81860800e-03 8.49858000e-02
        2 -1    0    0  501    0 +0.0000000000e+00 +0.0000000000e+00 +1.6456228619e+03 1.6456228619e+03 0.0000000000e+00 0.0000e+00 -1.0000e+00
       -2 -1    0    0    0  501 -0.0000000000e+00 -0.0000000000e+00 -2.2635650531e+02 2.2635650531e+02 0.0000000000e+00 0.0000e+00 1.0000e+00
      -13  1    1    2    0    0 -4.5952733924e+02 -5.1505399857e+00 +9.3699356078e+01 4.6901116500e+02 0.0000000000e+00 0.0000e+00 1.0000e+00
       13  1    1    2    0    0 +4.5952733924e+02 +5.1505399857e+00 +1.3255670005e+03 1.4029682022e+03 0.0000000000e+00 0.0000e+00 -1.0000e+00
<mgrwt>
<rscale>  0 0.12206514E+04</rscale>
<asrwt>0</asrwt>
<pdfrwt beam="1">  1        2 0.25317274E+00 0.12206514E+04</pdfrwt>
<pdfrwt beam="2">  1       -2 0.34824079E-01 0.12206514E+04</pdfrwt>
<totfact> 0.97980471E+01</totfact>
</mgrwt>
<rwgt>
<wgt id='morphing_basis_vector_1'> +2.6273970e-04 </wgt>
<wgt id='morphing_basis_vector_2'> +1.6954040e-04 </wgt>
<wgt id='morphing_basis_vector_3'> +2.6415482e-04 </wgt>
<wgt id='morphing_basis_vector_4'> +1.7027991e-04 </wgt>
<wgt id='morphing_basis_vector_5'> +2.7157147e-04 </wgt>
</rwgt>
</event>
<event>
 4      1 +7.8865000e-07 1.21547000e+03 7.81860800e-03 8.50246000e-02
        2 -1    0    0  501    0 +0.0000000000e+00 +0.0000000000e+00 +2.5880612454e+03 2.5880612454e+03 0.0000000000e+00 0.0000e+00 1.0000e+00
       -2 -1    0    0    0  501 -0.0000000000e+00 -0.0000000000e+00 -1.4270993547e+02 1.4270993547e+02 0.0000000000e+00 0.0000e+00 -1.0000e+00
      -13  1    1    2    0    0 +5.8455757185e+02 +1.3642935688e+02 +1.4360690696e+03 1.5564751514e+03 0.0000000000e+00 0.0000e+00 -1.0000e+00
       13  1    1    2    0    0 -5.8455757185e+02 -1.3642935688e+02 +1.0092822403e+03 1.1742960295e+03 0.0000000000e+00 0.0000e+00 1.0000e+00
<mgrwt>
<rscale>  0 0.12154704E+04</rscale>
<asrwt>0</asrwt>
<pdfrwt beam="1">  1        2 0.39816323E+00 0.12154704E+04</pdfrwt>
<pdfrwt beam="2">  1       -2 0.21955377E-01 0.12154704E+04</pdfrwt>
<totfact> 0.63994874E+01</totfact>
</mgrwt>
<rwgt>
<wgt id='morphing_basis_vector_1'> +2.7421215e-04 </wgt>
<wgt id='morphing_basis_vector_2'> +2.1380982e-04 </wgt>
<wgt id='morphing_basis_vector_3'> +2.7765084e-04 </wgt>
<wgt id='morphing_basis_vector_4'> +1.4020516e-04 </wgt>
<wgt id='morphing_basis_vector_5'> +2.6488761e-04 </wgt>
</rwgt>
</event>
<event>
 4      1 +7.8865000e-07 1.15866600e+03 7.81860800e-03 8.54637600e-02
        2 -1    0    0  501    0 +0.0000000000e+00 +0.0000000000e+00 +1.6529286690e+03 1.6529286690e+03 0.0000000000e+00 0.0000e+00 -1.0000e+00
       -2 -1    0    0    0  501 -0.0000000000e+00 -0.0000000000e+00 -2.0304989572e+02 2.0304989572e+02 0.0000000000e+00 0.0000e+00 1.0000e+00
      -13  1    1    2    0    0 +1.7111424440e+02 +1.9758312890e+02 -1.0323224122e+02 2.8102681917e+02 0.0000000000e+00 0.0000e+00 1.0000e+00
       13  1    1    2    0    0 -1.7111424440e+02 -1.9758312890e+02 +1.5531110145e+03 1.5749517456e+03 0.0000000000e+00 0.0000e+00 -1.0000e+00
<mgrwt>
<rscale>  0 0.11586665E+04</rscale>
<asrwt>0</asrwt>
<pdfrwt beam="1">  1        2 0.25429671E+00 0.11586665E+04</pdfrwt>
<pdfrwt beam="2">  1       -2 0.31238447E-01 0.11586665E+04</pdfrwt>
<totfact> 0.11858906E+02</totfact>
</mgrwt>
<rwgt>
<wgt id='morphing_basis_vector_1'> +2.1542923e-04 </wgt>
<wgt id='morphing_basis_vector_2'> +1.3739601e-04 </wgt>
<wgt id='morphing_basis_vector_3'> +2.1437961e-04 </wgt>
<wgt id='morphing_basis_vector_4'> +1.3720993e-04 </wgt>
<wgt id='morphing_basis_vector_5'> +2.1780414e-04 </wgt>
</rwgt>
</event>
<event>
 4      1 +7.8865000e-07 1.16001300e+03 7.81860800e-03 8.54530400e-02
        2 -1    0    0  501    0 +0.0000000000e+00 +0.0000000000e+00 +7.5014892099e+02 7.5014892099e+02 0.0000000000e+00 0.0000e+00 1.0000e+00
       -2 -1    0    0    0  501 -0.0000000000e+00 -0.0000000000e+00 -4.4845448090e+02 4.4845448090e+02 0.0000000000e+00 0.0000e+00 -1.0000e+00
      -13  1    1    2    0    0 +3.3633144232e+02 -3.2232284935e+02 -2.0618622569e+02 5.0943460617e+02 0.0000000000e+00 0.0000e+00 -1.0000e+00
       13  1    1    2    0    0 -3.3633144232e+02 +3.2232284935e+02 +5.0788066578e+02 6.8916879571e+02 0.0000000000e+00 0.0000e+00 1.0000e+00
<mgrwt>
<rscale>  0 0.11600132E+04</rscale>
<asrwt>0</asrwt>
<pdfrwt beam="1">  1        2 0.11540753E+00 0.11600132E+04</pdfrwt>
<pdfrwt beam="2">  1       -2 0.68992997E-01 0.11600132E+04</pdfrwt>
<totfact> 0.89108617E+01</totfact>
</mgrwt>
<rwgt>
<wgt id='morphing_basis_vector_1'> +2.1689716e-04 </wgt>
<wgt id='morphing_basis_vector_2'> +1.3959035e-04 </wgt>
<wgt id='morphing_basis_vector_3'> +2.1594462e-04 </wgt>
<wgt id='morphing_basis_vector_4'> +1.3700443e-04 </wgt>
<wgt id='morphing_basis_vector_5'> +2.1882337e-04 </wgt>
</rwgt>
</event>
<event>
 4      1 +7.8865000e-07 1.22774300e+03 7.81860800e-03 8.49330200e-02
        2 -1    0    0  501    0 +0.0000000000e+00 +0.0000000000e+00 +6.0973733623e+02 6.0973733623e+02 0.0000000000e+00 0.0000e+00 1.0000e+00
       -2 -1    0    0    0  501 -0.0000000000e+00 -0.0000000000e+00 -6.1803405470e+02 6.1803405470e+02 0.0000000000e+00 0.0000e+00 -1.0000e+00
      -13  1    1    2    0    0 +1.0575500929e+00 +4.8310809452e+02 -3.8289687657e+02 6.1644510501e+02 0.0000000000e+00 0.0000e+00 -1.0000e+00
       13  1    1    2    0    0 -1.0575500929e+00 -4.8310809452e+02 +3.7460015810e+02 6.1132628592e+02 0.0000000000e+00 0.0000e+00 1.0000e+00
<mgrwt>
<rscale>  0 0.12277434E+04</rscale>
<asrwt>0</asrwt>
<pdfrwt beam="1">  1        2 0.93805744E-01 0.12277434E+04</pdfrwt>
<pdfrwt beam="2">  1       -2 0.95082162E-01 0.12277434E+04</pdfrwt>
<totfact> 0.55246950E+01</totfact>
</mgrwt>
<rwgt>
<wgt id='morphing_basis_vector_1'> +2.6871868e-04 </wgt>
<wgt id='morphing_basis_vector_2'> +1.7384730e-04 </wgt>
<wgt id='morphing_basis_vector_3'> +2.7047545e-04 </wgt>
<wgt id='morphing_basis_vector_4'> +1.7423394e-04 </wgt>
<wgt id='morphing_basis_vector_5'> +2.7827958e-04 </wgt>
</rwgt>
</event>
<event>
 4      1 +7.8865000e-07 1.25142100e+03 7.81860800e-03 8.47595000e-02
        2 -1    0    0  501    0 +0.0000000000e+00 +0.0000000000e+00 +1.2619872760e+03 1.2619872760e+03 0.0000000000e+00 0.0000e+00 1.0000e+00
       -2 -1    0    0    0  501 -0.0000000000e+00 -0.0000000000e+00 -3.1023573922e+02 3.1023573922e+02 0.0000000000e+00 0.0000e+00 -1.0000e+00
      -13  1    1    2    0    0 -1.2691407438e+02 +5.7642505300e+02 +2.1492805381e+02 6.2814575722e+02 0.0000000000e+00 0.0000e+00 -1.0000e+00
       13  1    1    2    0    0 +1.2691407438e+02 -5.7642505300e+02 +7.3682348295e+02 9.4407725797e+02 0.0000000000e+00 0.0000e+00 1.0000e+00
<mgrwt>
<rscale>  0 0.12514209E+04</rscale>
<asrwt>0</asrwt>
<pdfrwt beam="1">  1        2 0.19415189E+00 0.12514209E+04</pdfrwt>
<pdfrwt beam="2">  1       -2 0.47728576E-01 0.12514209E+04</pdfrwt>
<totfact> 0.88903033E+01</totfact>
</mgrwt>
<rwgt>
<wgt id='morphing_basis_vector_1'> +2.9111320e-04 </wgt>
<wgt id='morphing_basis_vector_2'> +1.9385226e-04 </wgt>
<wgt id='morphing_basis_vector_3'> +2.9437844e-04 </wgt>
<wgt id='morphing_basis_vector_4'> +1.8498631e-04 </wgt>
<wgt id='morphing_basis_vector_5'> +3.0135784e-04 </wgt>
</rwgt>
</event>
<event>
 4      1 +7.8865000e-07 1.23993100e+03 7.81860800e-03 8.48431900e-02
        2 -1    0    0  501    0 +0.0000000000e+00 +0.0000000000e+00 +5.6836455749e+02 5.6836455749e+02 0.0000000000e+00 0.0000e+00 -1.0000e+00
       -2 -1    0    0    0  501 -0.0000000000e+00 -0.0000000000e+00 -6.7625147144e+02 6.7625147144e+02 0.0000000000e+00 0.0000e+00 1.0000e+00
      -13  1    1    2    0    0 -5.0290910425e+02 -3.5433446837e+02 +2.3072477714e+01 6.1563205069e+02 0.0000000000e+00 0.0000e+00 1.0000e+00
       13  1    1    2    0    0 +5.0290910425e+02 +3.5433446837e+02 -1.3095939166e+02 6.2898397823e+02 0.0000000000e+00 0.0000e+00 -1.0000e+00
<mgrwt>
<rscale>  0 0.12399312E+04</rscale>
<asrwt>0</asrwt>
<pdfrwt beam="1">  1        2 0.87440701E-01 0.12399312E+04</pdfrwt>
<pdfrwt beam="2">  1       -2 0.10403869E+00 0.12399312E+04</pdfrwt>
<totfact> 0.48258483E+01</totfact>
</mgrwt>
<rwgt>
<wgt id='morphing_basis_vector_1'> +2.9391521e-04 </wgt>
<wgt id='morphing_basis_vector_2'> +2.2547866e-04 </wgt>
<wgt id='morphing_basis_vector_3'> +2.9866318e-04 </wgt>
<wgt id='morphing_basis_vector_4'> +1.5562146e-04 </wgt>
<wgt id='morphing_basis_vector_5'> +2.8832863e-04 </wgt>
</rwgt>
</event>
<event>
 4      1 +7.8865000e-07 1.21032600e+03 7.81860800e-03 8.50633100e-02
        2 -1    0    0  501    0 +0.0000000000e+00 +0.0000000000e+00 +3.0696823701e+02 3.0696823701e+02 0.0000000000e+00 0.0000e+00 -1.0000e+00
       -2 -1    0    0    0  501 -0.0000000000e+00 -0.0000000000e+00 -1.1930307450e+03 1.1930307450e+03 0.0000000000e+00 0.0000e+00 1.0000e+00
      -13  1    1    2    0    0 -3.1135277087e+02 +2.8053334116e+02 -9.8407272726e+02 1.0695974177e+03 0.0000000000e+00 0.0000e+00 1.0000e+00
       13  1    1    2    0    0 +3.1135277087e+02 -2.8053334116e+02 +9.8010219299e+01 4.3040156427e+02 0.0000000000e+00 0.0000e+00 -1.0000e+00
<mgrwt>
<rscale>  0 0.12103265E+04</rscale>
<asrwt>0</asrwt>
<pdfrwt beam="1">  1        2 0.47225884E-01 0.12103265E+04</pdfrwt>
<pdfrwt beam="2">  1       -2 0.18354319E+00 0.12103265E+04</pdfrwt>
<totfact> 0.20130902E+01</totfact>
</mgrwt>
<rwgt>
<wgt id='morphing_basis_vector_1'> +2.5425409e-04 </wgt>
<wgt id='morphing_basis_vector_2'> +1.6352340e-04 </wgt>
<wgt id='morphing_basis_vector_3'> +2.5519663e-04 </wgt>
<wgt id='morphing_basis_vector_4'> +1.6457748e-04 </wgt>
<wgt id='morphing_basis_vector_5'> +2.6201484e-04 </wgt>
</rwgt>
</event>
<event>
 4      1 +7.8865000e-07 1.08738200e+03 7.81860800e-03 8.60537900e-02
        2 -1    0    0  501    0 +0.0000000000e+00 +0.0000000000e+00 +8.0037527493e+02 8.0037527493e+02 0.0000000000e+00 0.0000e+00 -1.0000e+00
       -2 -1    0    0    0  501 -0.0000000000e+00 -0.0000000000e+00 -3.6932661606e+02 3.6932661606e+02 0.0000000000e+00 0.0000e+00 1.0000e+00
      -13  1    1    2    0    0 +3.8392510154e+02 -3.6408628164e+02 +8.0985587723e+01 5.3527186502e+02 0.0000000000e+00 0.0000e+00 1.0000e+00
       13  1    1    2    0    0 -3.8392510154e+02 +3.6408628164e+02 +3.5006307115e+02 6.3443002597e+02 0.0000000000e+00 0.0000e+00 -1.0000e+00
<mgrwt>
<rscale>  0 0.10873820E+04</rscale>
<asrwt>0</asrwt>
<pdfrwt beam="1">  1        2 0.12313466E+00 0.10873820E+04</pdfrwt>
<pdfrwt beam="2">  1       -2 0.56819480E-01 0.10873820E+04</pdfrwt>
<totfact> 0.12338723E+02</totfact>
</mgrwt>
<rwgt>
<wgt id='morphing_basis_vector_1'> +1.7225652e-04 </wgt>
<wgt id='morphing_basis_vector_2'> +1.1499534e-04 </wgt>
<wgt id='morphing_basis_vector_3'> +1.6923751e-04 </wgt>
<wgt id='morphing_basis_vector_4'> +1.0064839e-04 </wgt>
<wgt id='morphing_basis_vector_5'> +1.6583840e-04 </wgt>
</rwgt>
</event>
<event>
 4      1 +7.8865000e-07 1.07411900e+03 7.81860800e-03 8.61687400e-02
        2 -1    0    0  501    0 +0.0000000000e+00 +0.0000000000e+00 +6.4999940334e+02 6.4999940334e+02 0.0000000000e+00 0.0000e+00 -1.0000e+00
       -2 -1    0    0    0  501 -0.0000000000e+00 -0.0000000000e+00 -4.4374293859e+02 4.4374293859e+02 0.0000000000e+00 0.0000e+00 1.0000e+00
      -13  1    1    2    0    0 -4.0156789403e+02 -2.4624376080e+02 -1.5953775308e+02 4.9733797151e+02 0.0000000000e+00 0.0000e+00 1.0000e+00
       13  1    1    2    0    0 +4.0156789403e+02 +2.4624376080e+02 +3.6579421784e+02 5.9640437042e+02 0.0000000000e+00 0.0000e+00 -1.0000e+00
<mgrwt>
<rscale>  0 0.10741185E+04</rscale>
<asrwt>0</asrwt>
<pdfrwt beam="1">  1        2 0.99999908E-01 0.10741185E+04</pdfrwt>
<pdfrwt beam="2">  1       -2 0.68268144E-01 0.10741185E+04</pdfrwt>
<totfact> 0.10931699E+02</totfact>
</mgrwt>
<rwgt>
<wgt id='morphing_basis_vector_1'> +1.6289539e-04 </wgt>
<wgt id='morphing_basis_vector_2'> +1.0472659e-04 </wgt>
<wgt id='morphing_basis_vector_3'> +1.5951031e-04 </wgt>
<wgt id='morphing_basis_vector_4'> +9.8166000e-05 </wgt>
<wgt id='morphing_basis_vector_5'> +1.5750234e-04 </wgt>
</rwgt>
</event>
<event>
 4      1 +7.8865000e-07 1.11683400e+03 7.81860800e-03 8.58044900e-02
        2 -1    0    0  501    0 +0.0000000000e+00 +0.0000000000e+00 +9.0698693859e+02 9.0698693859e+02 0.0000000000e+00 0.0000e+00 1.0000e+00
       -2 -1    0    0    0  501 -0.0000000000e+00 -0.0000000000e+00 -3.4380827904e+02 3.4380827904e+02 0.0000000000e+00 0.0000e+00 -1.0000e+00
      -13  1    1    2    0    0 -2.9736194051e+02 +3.4280618293e+02 -8.2848801262e+01 4.6130697653e+02 0.0000000000e+00 0.0000e+00 -1.0000e+00
       13  1    1    2    0    0 +2.9736194051e+02 -3.4280618293e+02 +6.4602746082e+02 7.8948824111e+02 0.0000000000e+00 0.0000e+00 1.0000e+00
<mgrwt>
<rscale>  0 0.11168341E+04</rscale>
<asrwt>0</asrwt>
<pdfrwt beam="1">  1        2 0.13953645E+00 0.11168341E+04</pdfrwt>
<pdfrwt beam="2">  1       -2 0.52893582E-01 0.11168341E+04</pdfrwt>
<totfact> 0.12050390E+02</totfact>
</mgrwt>
<rwgt>
<wgt id='morphing_basis_vector_1'> +1.8810100e-04 </wgt>
<wgt id='morphing_basis_vector_2'> +1.2059752e-04 </wgt>
<wgt id='morphing_basis_vector_3'> +1.8579418e-04 </wgt>
<wgt id='morphing_basis_vector_4'> +1.1656978e-04 </wgt>
<wgt id='morphing_basis_vector_5'> +1.8616848e-04 </wgt>
</rwgt>
</event>
<event>
 4      1 +7.8865000e-07 1.20280600e+03 7.81860800e-03 8.51202900e-02
        2 -1    0    0  501    0 +0.0000000000e+00 +0.0000000000e+00 +3.6854593101e+02 3.6854593101e+02 0.0000000000e+00 0.0000e+00 -1.0000e+00
       -2 -1    0    0    0  501 -0.0000000000e+00 -0.0000000000e+00 -9.8138503500e+02 9.8138503500e+02 0.0000000000e+00 0.0000e+00 1.0000e+00
      -13  1    1    2    0    0 -1.4398564258e+02 -2.4984036724e+02 -8.9873719416e+02 9.4386472470e+02 0.0000000000e+00 0.0000e+00 1.0000e+00
       13  1    1    2    0    0 +1.4398564258e+02 +2.4984036724e+02 +2.8589809016e+02 4.0606624131e+02 0.0000000000e+00 0.0000e+00 -1.0000e+00
<mgrwt>
<rscale>  0 0.12028058E+04</rscale>
<asrwt>0</asrwt>
<pdfrwt beam="1">  1        2 0.56699374E-01 0.12028058E+04</pdfrwt>
<pdfrwt beam="2">  1       -2 0.15098231E+00 0.12028058E+04</pdfrwt>
<totfact> 0.29567986E+01</totfact>
</mgrwt>
<rwgt>
<wgt id='morphing_basis_vector_1'> +2.4810795e-04 </wgt>
<wgt id='morphing_basis_vector_2'> +1.5894744e-04 </wgt>
<wgt id='morphing_basis_vector_3'> +2.4870700e-04 </wgt>
<wgt id='morphing_basis_vector_4'> +1.6068119e-04 </wgt>
<wgt id='morphing_basis_vector_5'> +2.5522271e-04 </wgt>
</rwgt>
</event>
<event>
 4      1 +7.8865000e-07 1.08419500e+03 7.81860800e-03 8.60812600e-02
        2 -1    0    0  501    0 +0.0000000000e+00 +0.0000000000e+00 +1.6449252349e+03 1.6449252349e+03 0.0000000000e+00 0.0000e+00 -1.0000e+00
       -2 -1    0    0    0  501 -0.0000000000e+00 -0.0000000000e+00 -1.7865231740e+02 1.7865231740e+02 0.0000000000e+00 0.0000e+00 1.0000e+00
      -13  1    1    2    0    0 +3.9603163558e+02 -1.3090774737e+02 +1.5074956556e+02 4.4351248710e+02 0.0000000000e+00 0.0000e+00 1.0000e+00
       13  1    1    2    0    0 -3.9603163558e+02 +1.3090774737e+02 +1.3155233520e+03 1.3800650652e+03 0.0000000000e+00 0.0000e+00 -1.0000e+00
<mgrwt>
<rscale>  0 0.10841950E+04</rscale>
<asrwt>0</asrwt>
<pdfrwt beam="1">  1        2 0.25306541E+00 0.10841950E+04</pdfrwt>
<pdfrwt beam="2">  1       -2 0.27484973E-01 0.10841950E+04</pdfrwt>
<totfact> 0.15100576E+02</totfact>
</mgrwt>
<rwgt>
<wgt id='morphing_basis_vector_1'> +1.6818805e-04 </wgt>
<wgt id='morphing_basis_vector_2'> +1.0709790e-04 </wgt>
<wgt id='morphing_basis_vector_3'> +1.6502759e-04 </wgt>
<wgt id='morphing_basis_vector_4'> +1.0295588e-04 </wgt>
<wgt id='morphing_basis_vector_5'> +1.6399172e-04 </wgt>
</rwgt>
</event>
<event>
 4      1 +7.8865000e-07 1.14856800e+03 7.81860800e-03 8.55446100e-02
        2 -1    0    0  501    0 +0.0000000000e+00 +0.0000000000e+00 +1.1740179719e+03 1.1740179719e+03 0.0000000000e+00 0.0000e+00 -1.0000e+00
       -2 -1    0    0    0  501 -0.0000000000e+00 -0.0000000000e+00 -2.8091767198e+02 2.8091767198e+02 0.0000000000e+00 0.0000e+00 1.0000e+00
      -13  1    1    2    0    0 -1.9325977859e+02 -6.9336340284e+01 -2.3283444705e+02 3.1043316485e+02 0.0000000000e+00 0.0000e+00 1.0000e+00
       13  1    1    2    0    0 +1.9325977859e+02 +6.9336340284e+01 +1.1259347470e+03 1.1445024791e+03 0.0000000000e+00 0.0000e+00 -1.0000e+00
<mgrwt>
<rscale>  0 0.11485685E+04</rscale>
<asrwt>0</asrwt>
<pdfrwt beam="1">  1        2 0.18061815E+00 0.11485685E+04</pdfrwt>
<pdfrwt beam="2">  1       -2 0.43218104E-01 0.11485685E+04</pdfrwt>
<totfact> 0.12193422E+02</totfact>
</mgrwt>
<rwgt>
<wgt id='morphing_basis_vector_1'> +2.0842523e-04 </wgt>
<wgt id='morphing_basis_vector_2'> +1.3274904e-04 </wgt>
<wgt id='morphing_basis_vector_3'> +2.0704005e-04 </wgt>
<wgt id='morphing_basis_vector_4'> +1.3224268e-04 </wgt>
<wgt id='morphing_basis_vector_5'> +2.0984737e-04 </wgt>
</rwgt>
</event>
<event>
 4      1 +7.8865000e-07 1.11060100e+03 7.81860800e-03 8.58565900e-02
        2 -1    0    0  501    0 +0.0000000000e+00 +0.0000000000e+00 +8.9985944479e+02 8.9985944479e+02 0.0000000000e+00 0.0000e+00 -1.0000e+00
       -2 -1    0    0    0  501 -0.0000000000e+00 -0.0000000000e+00 -3.4267393117e+02 3.4267393117e+02 0.0000000000e+00 0.0000e+00 1.0000e+00
      -13  1    1    2    0    0 -1.0657813026e+02 -2.2987870396e+02 -2.7422659117e+02 3.7336756647e+02 0.0000000000e+00 0.0000e+00 1.0000e+00
       13  1    1    2    0    0 +1.0657813026e+02 +2.2987870396e+02 +8.3141210480e+02 8.6916580949e+02 0.0000000000e+00 0.0000e+00 -1.0000e+00
<mgrwt>
<rscale>  0 0.11106005E+04</rscale>
<asrwt>0</asrwt>
<pdfrwt beam="1">  1        2 0.13843991E+00 0.11106005E+04</pdfrwt>
<pdfrwt beam="2">  1       -2 0.52719067E-01 0.11106005E+04</pdfrwt>
<totfact> 0.12265986E+02</totfact>
</mgrwt>
<rwgt>
<wgt id='morphing_basis_vector_1'> +1.8371320e-04 </wgt>
<wgt id='morphing_basis_vector_2'> +1.1656296e-04 </wgt>
<wgt id='morphing_basis_vector_3'> +1.8120736e-04 </wgt>
<wgt id='morphing_basis_vector_4'> +1.1461857e-04 </wgt>
<wgt id='morphing_basis_vector_5'> +1.8182096e-04 </wgt>
</rwgt>
</event>
<event>
 4      1 +7.8865000e-07 1.20326600e+03 7.81860800e-03 8.51167900e-02
        2 -1    0    0  501    0 +0.0000000000e+00 +0.0000000000e+00 +1.2214620778e+03 1.2214620778e+03 0.0000000000e+00 0.0000e+00 -1.0000e+00
       -2 -1    0    0    0  501 -0.0000000000e+00 -0.0000000000e+00 -2.9633522741e+02 2.9633522741e+02 0.0000000000e+00 0.0000e+00 1.0000e+00
      -13  1    1    2    0    0 -1.8981747574e+02 +3.5590693085e+02 -1.0050892081e+02 4.1569515355e+02 0.0000000000e+00 0.0000e+00 1.0000e+00
       13  1    1    2    0    0 +1.8981747574e+02 -3.5590693085e+02 +1.0256357712e+03 1.1021021517e+03 0.0000000000e+00 0.0000e+00 -1.0000e+00
<mgrwt>
<rscale>  0 0.12032660E+04</rscale>
<asrwt>0</asrwt>
<pdfrwt beam="1">  1        2 0.18791724E+00 0.12032660E+04</pdfrwt>
<pdfrwt beam="2">  1       -2 0.45590036E-01 0.12032660E+04</pdfrwt>
<totfact> 0.10288695E+02</totfact>
</mgrwt>
<rwgt>
<wgt id='morphing_basis_vector_1'> +2.4864263e-04 </wgt>
<wgt id='morphing_basis_vector_2'> +1.5971104e-04 </wgt>
<wgt id='morphing_basis_vector_3'> +2.4928403e-04 </wgt>
<wgt id='morphing_basis_vector_4'> +1.6063948e-04 </wgt>
<wgt id='morphing_basis_vector_5'> +2.5561562e-04 </wgt>
</rwgt>
</event>
<event>
 4      1 +7.8865000e-07 1.09261100e+03 7.81860800e-03 8.60089500e-02
        2 -1    0    0  501    0 +0.0000000000e+00 +0.0000000000e+00 +2.5871522799e+03 2.5871522799e+03 0.0000000000e+00 0.0000e+00 1.0000e+00
       -2 -1    0    0    0  501 -0.0000000000e+00 -0.0000000000e+00 -1.1535827865e+02 1.1535827865e+02 0.0000000000e+00 0.0000e+00 -1.0000e+00
      -13  1    1    2    0    0 -3.2123454937e+02 +3.0390821961e+02 +4.4247428546e+02 6.2556800986e+02 0.0000000000e+00 0.0000e+00 -1.0000e+00
       13  1    1    2    0    0 +3.2123454937e+02 -3.0390821961e+02 +2.0293197158e+03 2.0769425487e+03 0.0000000000e+00 0.0000e+00 1.0000e+00
<mgrwt>
<rscale>  0 0.10926105E+04</rscale>
<asrwt>0</asrwt>
<pdfrwt beam="1">  1        2 0.39802338E+00 0.10926105E+04</pdfrwt>
<pdfrwt beam="2">  1       -2 0.17747429E-01 0.10926105E+04</pdfrwt>
<totfact> 0.92500586E+01</totfact>
</mgrwt>
<rwgt>
<wgt id='morphing_basis_vector_1'> +1.7325167e-04 </wgt>
<wgt id='morphing_basis_vector_2'> +1.1074053e-04 </wgt>
<wgt id='morphing_basis_vector_3'> +1.7029968e-04 </wgt>
<wgt id='morphing_basis_vector_4'> +1.0619755e-04 </wgt>
<wgt id='morphing_basis_vector_5'> +1.6950368e-04 </wgt>
</rwgt>
</event>
<event>
 4      1 +7.8865000e-07 1.16969200e+03 7.81860800e-03 8.53764700e-02
        2 -1    0    0  501    0 +0.0000000000e+00 +0.0000000000e+00 +1.3911843688e+03 1.3911843688e+03 0.0000000000e+00 0.0000e+00 -1.0000e+00
       -2 -1    0    0    0  501 -0.0000000000e+00 -0.0000000000e+00 -2.4586603421e+02 2.4586603421e+02 0.0000000000e+00 0.0000e+00 1.0000e+00
      -13  1    1    2    0    0 -3.4068489762e+02 +2.5256345772e+02 +9.0174524700e+00 4.2418841815e+02 0.0000000000e+00 0.0000e+00 1.0000e+00
       13  1    1    2    0    0 +3.4068489762e+02 -2.5256345772e+02 +1.1363008821e+03 1.2128619848e+03 0.0000000000e+00 0.0000e+00 -1.0000e+00
<mgrwt>
<rscale>  0 0.11696922E+04</rscale>
<asrwt>0</asrwt>
<pdfrwt beam="1">  1        2 0.21402836E+00 0.11696922E+04</pdfrwt>
<pdfrwt beam="2">  1       -2 0.37825545E-01 0.11696922E+04</pdfrwt>
<totfact> 0.11723663E+02</totfact>
</mgrwt>
<rwgt>
<wgt id='morphing_basis_vector_1'> +2.2353464e-04 </wgt>
<wgt id='morphing_basis_vector_2'> +1.4337255e-04 </wgt>
<wgt id='morphing_basis_vector_3'> +2.2289668e-04 </wgt>
<wgt id='morphing_basis_vector_4'> +1.4235923e-04 </wgt>
<wgt id='morphing_basis_vector_5'> +2.2671417e-04 </wgt>
</rwgt>
</event>
<event>
 4      1 +7.8865000e-07 1.24849500e+03 7.81860800e-03 8.47807200e-02
        2 -1    0    0  501    0 +0.0000000000e+00 +0.0000000000e+00 +1.5955899506e+02 1.5955899506e+02 0.0000000000e+00 0.0000e+00 -1.0000e+00
       -2 -1    0    0    0  501 -0.0000000000e+00 -0.0000000000e+00 -2.4422614921e+03 2.4422614921e+03 0.0000000000e+00 0.0000e+00 1.0000e+00
      -13  1    1    2    0    0 -1.3204125969e+02 -6.0729232631e+02 -1.2636842264e+03 1.4082388604e+03 0.0000000000e+00 0.0000e+00 1.0000e+00
       13  1    1    2    0    0 +1.3204125969e+02 +6.0729232631e+02 -1.0190182707e+03 1.1935816268e+03 0.0000000000e+00 0.0000e+00 -1.0000e+00
<mgrwt>
<rscale>  0 0.12484948E+04</rscale>
<asrwt>0</asrwt>
<pdfrwt beam="1">  1        2 0.24547538E-01 0.12484948E+04</pdfrwt>
<pdfrwt beam="2">  1       -2 0.37573254E+00 0.12484948E+04</pdfrwt>
<totfact> 0.20753695E+00</totfact>
</mgrwt>
<rwgt>
<wgt id='morphing_basis_vector_1'> +2.9303731e-04 </wgt>
<wgt id='morphing_basis_vector_2'> +2.0559348e-04 </wgt>
<wgt id='morphing_basis_vector_3'> +2.9690583e-04 </wgt>
<wgt id='morphing_basis_vector_4'> +1.7531273e-04 </wgt>
<wgt id='morphing_basis_vector_5'> +2.9785646e-04 </wgt>
</rwgt>
</event>
<event>
 4      1 +7.8865000e-07 1.08036600e+03 7.81860800e-03 8.61143800e-02
        2 -1    0    0  501    0 +0.0000000000e+00 +0.0000000000e+00 +8.4503728230e+02 8.4503728230e+02 0.0000000000e+00 0.0000e+00 -1.0000e+00
       -2 -1    0    0    0  501 -0.0000000000e+00 -0.0000000000e+00 -3.4530766120e+02 3.4530766120e+02 0.0000000000e+00 0.0000e+00 1.0000e+00
      -13  1    1    2    0    0 +1.1801626850e+02 +2.4844270394e+02 -2.6237771148e+02 3.8012324351e+02 0.0000000000e+00 0.0000e+00 1.0000e+00
       13  1    1    2    0    0 -1.1801626850e+02 -2.4844270394e+02 +7.6210733258e+02 8.1022170000e+02 0.0000000000e+00 0.0000e+00 -1.0000e+00
<mgrwt>
<rscale>  0 0.10803663E+04</rscale>
<asrwt>0</asrwt>
<pdfrwt beam="1">  1        2 0.13000574E+00 0.10803663E+04</pdfrwt>
<pdfrwt beam="2">  1       -2 0.53124256E-01 0.10803663E+04</pdfrwt>
<totfact> 0.13164012E+02</totfact>
</mgrwt>
<rwgt>
<wgt id='morphing_basis_vector_1'> +1.6569751e-04 </wgt>
<wgt id='morphing_basis_vector_2'> +1.0479249e-04 </wgt>
<wgt id='morphing_basis_vector_3'> +1.6244107e-04 </wgt>
<wgt id='morphing_basis_vector_4'> +1.0186981e-04 </wgt>
<wgt id='morphing_basis_vector_5'> +1.6155111e-04 </wgt>
</rwgt>
</event>
<event>
 4      1 +7.8865000e-07 1.17236800e+03 7.81860800e-03 8.53554400e-02
        2 -1    0    0  501    0 +0.0000000000e+00 +0.0000000000e+00 +1.3110025881e+03 1.3110025881e+03 0.0000000000e+00 0.0000e+00 1.0000e+00
       -2 -1    0    0    0  501 -0.0000000000e+00 -0.0000000000e+00 -2.6209836762e+02 2.6209836762e+02 0.0000000000e+00 0.0000e+00 -1.0000e+00
      -13  1    1    2    0    0 +2.6302412024e+01 +2.7370447913e+02 -1.7019569111e+02 3.2337676486e+02 0.0000000000e+00 0.0000e+00 -1.0000e+00
       13  1    1    2    0    0 -2.6302412024e+01 -2.7370447913e+02 +1.2190999116e+03 1.2497241909e+03 0.0000000000e+00 0.0000e+00 1.0000e+00
<mgrwt>
<rscale>  0 0.11723679E+04</rscale>
<asrwt>0</asrwt>
<pdfrwt beam="1">  1        2 0.20169270E+00 0.11723679E+04</pdfrwt>
<pdfrwt beam="2">  1       -2 0.40322827E-01 0.11723679E+04</pdfrwt>
<totfact> 0.11557279E+02</totfact>
</mgrwt>
<rwgt>
<wgt id='morphing_basis_vector_1'> +2.2519989e-04 </wgt>
<wgt id='morphing_basis_vector_2'> +1.4383996e-04 </wgt>
<wgt id='morphing_basis_vector_3'> +2.2462908e-04 </wgt>
<wgt id='morphing_basis_vector_4'> +1.4420021e-04 </wgt>
<wgt id='morphing_basis_vector_5'> +2.2895435e-04 </wgt>
</rwgt>
</event>
<event>
 4      1 +7.8865000e-07 1.19566800e+03 7.81860800e-03 8.51747700e-02
        2 -1    0    0  501    0 +0.0000000000e+00 +0.0000000000e+00 +8.7575199504e+02 8.7575199504e+02 0.0000000000e+00 0.0000e+00 1.0000e+00
       -2 -1    0    0    0  501 -0.0000000000e+00 -0.0000000000e+00 -4.0811238631e+02 4.0811238631e+02 0.0000000000e+00 0.0000e+00 -1.0000e+00
      -13  1    1    2    0    0 +1.4468504097e+02 -2.7213878419e+02 +7.8386770251e+02 8.4228371347e+02 0.0000000000e+00 0.0000e+00 1.0000e+00
       13  1    1    2    0    0 -1.4468504097e+02 +2.7213878419e+02 -3.1622809378e+02 4.4158066788e+02 0.0000000000e+00 0.0000e+00 -1.0000e+00
<mgrwt>
<rscale>  0 0.11956676E+04</rscale>
<asrwt>0</asrwt>
<pdfrwt beam="1">  1        2 0.13473108E+00 0.11956676E+04</pdfrwt>
<pdfrwt beam="2">  1       -2 0.62786521E-01 0.11956676E+04</pdfrwt>
<totfact> 0.88684152E+01</totfact>
</mgrwt>
<rwgt>
<wgt id='morphing_basis_vector_1'> +3.2716113e-04 </wgt>
<wgt id='morphing_basis_vector_2'> +4.0940447e-04 </wgt>
<wgt id='morphing_basis_vector_3'> +3.3830472e-04 </wgt>
<wgt id='morphing_basis_vector_4'> +1.1835551e-05 </wgt>
<wgt id='morphing_basis_vector_5'> +2.3906733e-04 </wgt>
</rwgt>
</event>
<event>
 4      1 +7.8865000e-07 1.24110100e+03 7.81860800e-03 8.48346300e-02
        2 -1    0    0  501    0 +0.0000000000e+00 +0.0000000000e+00 +3.4796095881e+03 3.4796095881e+03 0.0000000000e+00 0.0000e+00 -1.0000e+00
       -2 -1    0    0    0  501 -0.0000000000e+00 -0.0000000000e+00 -1.1066846194e+02 1.1066846194e+02 0.0000000000e+00 0.0000e+00 1.0000e+00
      -13  1    1    2    0    0 +5.1318690127e+01 +5.8518382116e+02 +1.1058397933e+03 1.2521802430e+03 0.0000000000e+00 0.0000e+00 1.0000e+00
       13  1    1    2    0    0 -5.1318690127e+01 -5.8518382116e+02 +2.2631013328e+03 2.3380978070e+03 0.0000000000e+00 0.0000e+00 -1.0000e+00
<mgrwt>
<rscale>  0 0.12411012E+04</rscale>
<asrwt>0</asrwt>
<pdfrwt beam="1">  1        2 0.53532447E+00 0.12411012E+04</pdfrwt>
<pdfrwt beam="2">  1       -2 0.17025920E-01 0.12411012E+04</pdfrwt>
<totfact> 0.25594065E+01</totfact>
</mgrwt>
<rwgt>
<wgt id='morphing_basis_vector_1'> +2.8221595e-04 </wgt>
<wgt id='morphing_basis_vector_2'> +1.8804356e-04 </wgt>
<wgt id='morphing_basis_vector_3'> +2.8496502e-04 </wgt>
<wgt id='morphing_basis_vector_4'> +1.7845761e-04 </wgt>
<wgt id='morphing_basis_vector_5'> +2.9100963e-04 </wgt>
</rwgt>
</event>
<event>
 4      1 +7.8865000e-07 1.16690800e+03 7.81860800e-03 8.53984200e-02
        2 -1    0    0  501    0 +0.0000000000e+00 +0.0000000000e+00 +1.7637754061e+03 1.7637754061e+03 0.0000000000e+00 0.0000e+00 -1.0000e+00
       -2 -1    0    0    0  501 -0.0000000000e+00 -0.0000000000e+00 -1.9300558011e+02 1.9300558011e+02 0.0000000000e+00 0.0000e+00 1.0000e+00
      -13  1    1    2    0    0 -4.6944052733e+02 -2.9756683329e+02 +4.8777485967e+02 7.3948951494e+02 0.0000000000e+00 0.0000e+00 1.0000e+00
       13  1    1    2    0    0 +4.6944052733e+02 +2.9756683329e+02 +1.0829949663e+03 1.2172914713e+03 0.0000000000e+00 0.0000e+00 -1.0000e+00
<mgrwt>
<rscale>  0 0.11669079E+04</rscale>
<asrwt>0</asrwt>
<pdfrwt beam="1">  1        2 0.27135005E+00 0.11669079E+04</pdfrwt>
<pdfrwt beam="2">  1       -2 0.29693167E-01 0.11669079E+04</pdfrwt>
<totfact> 0.11259757E+02</totfact>
</mgrwt>
<rwgt>
<wgt id='morphing_basis_vector_1'> +2.2367492e-04 </wgt>
<wgt id='morphing_basis_vector_2'> +1.4848800e-04 </wgt>
<wgt id='morphing_basis_vector_3'> +2.2316077e-04 </wgt>
<wgt id='morphing_basis_vector_4'> +1.3730746e-04 </wgt>
<wgt id='morphing_basis_vector_5'> +2.2418967e-04 </wgt>
</rwgt>
</event>
<event>
 4      1 +7.8865000e-07 1.12589200e+03 7.81860800e-03 8.57294100e-02
        2 -1    0    0  501    0 +0.0000000000e+00 +0.0000000000e+00 +2.0894365155e+03 2.0894365155e+03 0.0000000000e+00 0.0000e+00 1.0000e+00
       -2 -1    0    0    0  501 -0.0000000000e+00 -0.0000000000e+00 -1.5167151036e+02 1.5167151036e+02 0.0000000000e+00 0.0000e+00 -1.0000e+00
      -13  1    1    2    0    0 -2.2544999750e+02 +5.0070724511e+02 +7.2208594822e+02 9.0716236876e+02 0.0000000000e+00 0.0000e+00 -1.0000e+00
       13  1    1    2    0    0 +2.2544999750e+02 -5.0070724511e+02 +1.2156790569e+03 1.3339456571e+03 0.0000000000e+00 0.0000e+00 1.0000e+00
<mgrwt>
<rscale>  0 0.11258916E+04</rscale>
<asrwt>0</asrwt>
<pdfrwt beam="1">  1        2 0.32145175E+00 0.11258916E+04</pdfrwt>
<pdfrwt beam="2">  1       -2 0.23334080E-01 0.11258916E+04</pdfrwt>
<totfact> 0.11303858E+02</totfact>
</mgrwt>
<rwgt>
<wgt id='morphing_basis_vector_1'> +1.9637495e-04 </wgt>
<wgt id='morphing_basis_vector_2'> +1.3191301e-04 </wgt>
<wgt id='morphing_basis_vector_3'> +1.9449772e-04 </wgt>
<wgt id='morphing_basis_vector_4'> +1.1651608e-04 </wgt>
<wgt id='morphing_basis_vector_5'> +1.9242903e-04 </wgt>
</rwgt>
</event>
<event>
 4      1 +7.8865000e-07 1.23926100e+03 7.81860800e-03 8.48481000e-02
        2 -1    0    0  501    0 +0.0000000000e+00 +0.0000000000e+00 +5.0403268219e+02 5.0403268219e+02 0.0000000000e+00 0.0000e+00 1.0000e+00
       -2 -1    0    0    0  501 -0.0000000000e+00 -0.0000000000e+00 -7.6174063413e+02 7.6174063413e+02 0.0000000000e+00 0.0000e+00 -1.0000e+00
      -13  1    1    2    0    0 -1.4408652325e+02 -7.0897766900e+01 -7.4011737351e+02 7.5733819798e+02 0.0000000000e+00 0.0000e+00 -1.0000e+00
       13  1    1    2    0    0 +1.4408652325e+02 +7.0897766900e+01 +4.8240942158e+02 5.0843511834e+02 0.0000000000e+00 0.0000e+00 1.0000e+00
<mgrwt>
<rscale>  0 0.12392614E+04</rscale>
<asrwt>0</asrwt>
<pdfrwt beam="1">  1        2 0.77543490E-01 0.12392614E+04</pdfrwt>
<pdfrwt beam="2">  1       -2 0.11719087E+00 0.12392614E+04</pdfrwt>
<totfact> 0.41105370E+01</totfact>
</mgrwt>
<rwgt>
<wgt id='morphing_basis_vector_1'> +2.7779309e-04 </wgt>
<wgt id='morphing_basis_vector_2'> +1.7844552e-04 </wgt>
<wgt id='morphing_basis_vector_3'> +2.7999034e-04 </wgt>
<wgt id='morphing_basis_vector_4'> +1.8228886e-04 </wgt>
<wgt id='morphing_basis_vector_5'> +2.8953577e-04 </wgt>
</rwgt>
</event>
<event>
 4      1 +7.8865000e-07 1.08030600e+03 7.81860800e-03 8.61149100e-02
        2 -1    0    0  501    0 +0.0000000000e+00 +0.0000000000e+00 +7.4847705865e+02 7.4847705865e+02 0.0000000000e+00 0.0000e+00 -1.0000e+00
       -2 -1    0    0    0  501 -0.0000000000e+00 -0.0000000000e+00 -3.8981159594e+02 3.8981159594e+02 0.0000000000e+00 0.0000e+00 1.0000e+00
      -13  1    1    2    0    0 +1.8493723576e+02 +1.6500260224e+02 -3.2636151796e+02 4.0980419754e+02 0.0000000000e+00 0.0000e+00 1.0000e+00
       13  1    1    2    0    0 -1.8493723576e+02 -1.6500260224e+02 +6.8502698068e+02 7.2848445705e+02 0.0000000000e+00 0.0000e+00 -1.0000e+00
<mgrwt>
<rscale>  0 0.10803056E+04</rscale>
<asrwt>0</asrwt>
<pdfrwt beam="1">  1        2 0.11515032E+00 0.10803056E+04</pdfrwt>
<pdfrwt beam="2">  1       -2 0.59971015E-01 0.10803056E+04</pdfrwt>
<totfact> 0.12041473E+02</totfact>
</mgrwt>
<rwgt>
<wgt id='morphing_basis_vector_1'> +1.6564873e-04 </wgt>
<wgt id='morphing_basis_vector_2'> +1.0472753e-04 </wgt>
<wgt id='morphing_basis_vector_3'> +1.6239059e-04 </wgt>
<wgt id='morphing_basis_vector_4'> +1.0186804e-04 </wgt>
<wgt id='morphing_basis_vector_5'> +1.6151359e-04 </wgt>
</rwgt>
</event>
<event>
 4      1 +7.8865000e-07 1.16031000e+03 7.81860800e-03 8.54506800e-02
        2 -1    0    0  501    0 +0.0000000000e+00 +0.0000000000e+00 +2.3147537600e+03 2.3147537600e+03 0.0000000000e+00 0.0000e+00 -1.0000e+00
       -2 -1    0    0    0  501 -0.0000000000e+00 -0.0000000000e+00 -1.4540638729e+02 1.4540638729e+02 0.0000000000e+00 0.0000e+00 1.0000e+00
      -13  1    1    2    0    0 -5.7720218222e+02 +1.0432813956e+01 +9.6271208502e+02 1.1225354166e+03 0.0000000000e+00 0.0000e+00 1.0000e+00
       13  1    1    2    0    0 +5.7720218222e+02 -1.0432813956e+01 +1.2066352877e+03 1.3376247307e+03 0.0000000000e+00 0.0000e+00 -1.0000e+00
<mgrwt>
<rscale>  0 0.11603103E+04</rscale>
<asrwt>0</asrwt>
<pdfrwt beam="1">  1        2 0.35611594E+00 0.11603103E+04</pdfrwt>
<pdfrwt beam="2">  1       -2 0.22370215E-01 0.11603103E+04</pdfrwt>
<totfact> 0.90156324E+01</totfact>
</mgrwt>
<rwgt>
<wgt id='morphing_basis_vector_1'> +2.2196998e-04 </wgt>
<wgt id='morphing_basis_vector_2'> +1.5435841e-04 </wgt>
<wgt id='morphing_basis_vector_3'> +2.2150688e-04 </wgt>
<wgt id='morphing_basis_vector_4'> +1.2894494e-04 </wgt>
<wgt id='morphing_basis_vector_5'> +2.1851533e-04 </wgt>
</rwgt>
</event>
<event>
 4      1 +7.8865000e-07 1.27867600e+03 7.81860800e-03 8.45646700e-02
        2 -1    0    0  501    0 +0.0000000000e+00 +0.0000000000e+00 +2.9156652299e+02 2.9156652299e+02 0.0000000000e+00 0.0000e+00 1.0000e+00
       -2 -1    0    0    0  501 -0.0000000000e+00 -0.0000000000e+00 -1.4019200499e+03 1.4019200499e+03 0.0000000000e+00 0.0000e+00 -1.0000e+00
      -13  1    1    2    0    0 -4.8775467092e+02 +6.1992699168e+01 -1.0964123693e+03 1.2016105015e+03 0.0000000000e+00 0.0000e+00 -1.0000e+00
       13  1    1    2    0    0 +4.8775467092e+02 -6.1992699168e+01 -1.3941157640e+01 4.9187607141e+02 0.0000000000e+00 0.0000e+00 1.0000e+00
<mgrwt>
<rscale>  0 0.12786758E+04</rscale>
<asrwt>0</asrwt>
<pdfrwt beam="1">  1        2 0.44856388E-01 0.12786758E+04</pdfrwt>
<pdfrwt beam="2">  1       -2 0.21568001E+00 0.12786758E+04</pdfrwt>
<totfact> 0.12343214E+01</totfact>
</mgrwt>
<rwgt>
<wgt id='morphing_basis_vector_1'> +3.1351152e-04 </wgt>
<wgt id='morphing_basis_vector_2'> +2.0346467e-04 </wgt>
<wgt id='morphing_basis_vector_3'> +3.1782457e-04 </wgt>
<wgt id='morphing_basis_vector_4'> +2.0683941e-04 </wgt>
<wgt id='morphing_basis_vector_5'> +3.3025648e-04 </wgt>
</rwgt>
</event>
<event>
 4      1 +7.8865000e-07 1.12271000e+03 7.81860800e-03 8.57557000e-02
        2 -1    0    0  501    0 +0.0000000000e+00 +0.0000000000e+00 +6.2465447537e+02 6.2465447537e+02 0.0000000000e+00 0.0000e+00 -1.0000e+00
       -2 -1    0    0    0  501 -0.0000000000e+00 -0.0000000000e+00 -5.0446956597e+02 5.0446956597e+02 0.0000000000e+00 0.0000e+00 1.0000e+00
      -13  1    1    2    0    0 -4.8947674448e+02 -7.0395015479e+01 -2.0708725573e+02 5.3612318834e+02 0.0000000000e+00 0.0000e+00 1.0000e+00
       13  1    1    2    0    0 +4.8947674448e+02 +7.0395015479e+01 +3.2727216513e+02 5.9300085300e+02 0.0000000000e+00 0.0000e+00 -1.0000e+00
<mgrwt>
<rscale>  0 0.11227095E+04</rscale>
<asrwt>0</asrwt>
<pdfrwt beam="1">  1        2 0.96100689E-01 0.11227095E+04</pdfrwt>
<pdfrwt beam="2">  1       -2 0.77610702E-01 0.11227095E+04</pdfrwt>
<totfact> 0.86425259E+01</totfact>
</mgrwt>
<rwgt>
<wgt id='morphing_basis_vector_1'> +1.9227759e-04 </wgt>
<wgt id='morphing_basis_vector_2'> +1.2438790e-04 </wgt>
<wgt id='morphing_basis_vector_3'> +1.9016758e-04 </wgt>
<wgt id='morphing_basis_vector_4'> +1.1847678e-04 </wgt>
<wgt id='morphing_basis_vector_5'> +1.9033843e-04 </wgt>
</rwgt>
</event>
<event>
 4      1 +7.8865000e-07 1.21273400e+03 7.81860800e-03 8.50451700e-02
        2 -1    0    0  501    0 +0.0000000000e+00 +0.0000000000e+00 +1.4139832031e+03 1.4139832031e+03 0.0000000000e+00 0.0000e+00 -1.0000e+00
       -2 -1    0    0    0  501 -0.0000000000e+00 -0.0000000000e+00 -2.6003209050e+02 2.6003209050e+02 0.0000000000e+00 0.0000e+00 1.0000e+00
      -13  1    1    2    0    0 +2.7031027408e+02 +3.4250518918e+02 -4.2605084877e+00 4.3634344366e+02 0.0000000000e+00 0.0000e+00 1.0000e+00
       13  1    1    2    0    0 -2.7031027408e+02 -3.4250518918e+02 +1.1582116211e+03 1.2376718499e+03 0.0000000000e+00 0.0000e+00 -1.0000e+00
<mgrwt>
<rscale>  0 0.12127341E+04</rscale>
<asrwt>0</asrwt>
<pdfrwt beam="1">  1        2 0.21753587E+00 0.12127341E+04</pdfrwt>
<pdfrwt beam="2">  1       -2 0.40004938E-01 0.12127341E+04</pdfrwt>
<totfact> 0.10224715E+02</totfact>
</mgrwt>
<rwgt>
<wgt id='morphing_basis_vector_1'> +2.5623927e-04 </wgt>
<wgt id='morphing_basis_vector_2'> +1.6498832e-04 </wgt>
<wgt id='morphing_basis_vector_3'> +2.5729363e-04 </wgt>
<wgt id='morphing_basis_vector_4'> +1.6585070e-04 </wgt>
<wgt id='morphing_basis_vector_5'> +2.6421785e-04 </wgt>
</rwgt>
</event>
<event>
 4      1 +7.8865000e-07 1.07868000e+03 7.81860800e-03 8.61290200e-02
        2 -1    0    0  501    0 +0.0000000000e+00 +0.0000000000e+00 +9.6884764278e+02 9.6884764278e+02 0.0000000000e+00 0.0000e+00 1.0000e+00
       -2 -1    0    0    0  501 -0.0000000000e+00 -0.0000000000e+00 -3.0024068574e+02 3.0024068574e+02 0.0000000000e+00 0.0000e+00 -1.0000e+00
      -13  1    1    2    0    0 +2.6497284247e+02 +4.5586850667e+02 +2.0087978453e+02 5.6425117674e+02 0.0000000000e+00 0.0000e+00 -1.0000e+00
       13  1    1    2    0    0 -2.6497284247e+02 -4.5586850667e+02 +4.6772717252e+02 7.0483715178e+02 0.0000000000e+00 0.0000e+00 1.0000e+00
<mgrwt>
<rscale>  0 0.10786797E+04</rscale>
<asrwt>0</asrwt>
<pdfrwt beam="1">  1        2 0.14905348E+00 0.10786797E+04</pdfrwt>
<pdfrwt beam="2">  1       -2 0.46190875E-01 0.10786797E+04</pdfrwt>
<totfact> 0.14372931E+02</totfact>
</mgrwt>
<rwgt>
<wgt id='morphing_basis_vector_1'> +1.6736385e-04 </wgt>
<wgt id='morphing_basis_vector_2'> +1.1209886e-04 </wgt>
<wgt id='morphing_basis_vector_3'> +1.6412289e-04 </wgt>
<wgt id='morphing_basis_vector_4'> +9.6926211e-05 </wgt>
<wgt id='morphing_basis_vector_5'> +1.6020103e-04 </wgt>
</rwgt>
</event>
<event>
 4      1 +7.8865000e-07 1.16997700e+03 7.81860800e-03 8.53742300e-02
        2 -1    0    0  501    0 +0.0000000000e+00 +0.0000000000e+00 +1.0785925551e+03 1.0785925551e+03 0.0000000000e+00 0.0000e+00 1.0000e+00
       -2 -1    0    0    0  501 -0.0000000000e+00 -0.0000000000e+00 -3.1727597221e+02 3.1727597221e+02 0.0000000000e+00 0.0000e+00 -1.0000e+00
      -13  1    1    2    0    0 +2.3565102108e+02 -4.1399985545e+02 -2.4432290933e+01 4.7699499043e+02 0.0000000000e+00 0.0000e+00 1.0000e+00
       13  1    1    2    0    0 -2.3565102108e+02 +4.1399985545e+02 +7.8574887380e+02 9.1887353685e+02 0.0000000000e+00 0.0000e+00 -1.0000e+00
<mgrwt>
<rscale>  0 0.11699769E+04</rscale>
<asrwt>0</asrwt>
<pdfrwt beam="1">  1        2 0.16593731E+00 0.11699769E+04</pdfrwt>
<pdfrwt beam="2">  1       -2 0.48811688E-01 0.11699769E+04</pdfrwt>
<totfact> 0.10979820E+02</totfact>
</mgrwt>
<rwgt>
<wgt id='morphing_basis_vector_1'> +2.2406195e-04 </wgt>
<wgt id='morphing_basis_vector_2'> +1.4447652e-04 </wgt>
<wgt id='morphing_basis_vector_3'> +2.2346861e-04 </wgt>
<wgt id='morphing_basis_vector_4'> +1.4196017e-04 </wgt>
<wgt id='morphing_basis_vector_5'> +2.2691201e-04 </wgt>
</rwgt>
</event>
<event>
 4      1 +7.8865000e-07 1.07246300e+03 7.81860800e-03 8.61832000e-02
        2 -1    0    0  501    0 +0.0000000000e+00 +0.0000000000e+00 +1.9902170828e+03 1.9902170828e+03 0.0000000000e+00 0.0000e+00 1.0000e+00
       -2 -1    0    0    0  501 -0.0000000000e+00 -0.0000000000e+00 -1.4447882884e+02 1.4447882884e+02 0.0000000000e+00 0.0000e+00 -1.0000e+00
      -13  1    1    2    0    0 -1.8770293157e+02 +2.5566546090e+02 +6.2246105951e+01 3.2322097104e+02 0.0000000000e+00 0.0000e+00 -1.0000e+00
       13  1    1    2    0    0 +1.8770293157e+02 -2.5566546090e+02 +1.7834921480e+03 1.8114749406e+03 0.0000000000e+00 0.0000e+00 1.0000e+00
<mgrwt>
<rscale>  0 0.10724630E+04</rscale>
<asrwt>0</asrwt>
<pdfrwt beam="1">  1        2 0.30618722E+00 0.10724630E+04</pdfrwt>
<pdfrwt beam="2">  1       -2 0.22227514E-01 0.10724630E+04</pdfrwt>
<totfact> 0.14010281E+02</totfact>
</mgrwt>
<rwgt>
<wgt id='morphing_basis_vector_1'> +1.6125397e-04 </wgt>
<wgt id='morphing_basis_vector_2'> +1.0197301e-04 </wgt>
<wgt id='morphing_basis_vector_3'> +1.5782134e-04 </wgt>
<wgt id='morphing_basis_vector_4'> +9.8662328e-05 </wgt>
<wgt id='morphing_basis_vector_5'> +1.5653462e-04 </wgt>
</rwgt>
</event>
<event>
 4      1 +7.8865000e-07 1.18689900e+03 7.81860800e-03 8.52422500e-02
        2 -1    0    0  501    0 +0.0000000000e+00 +0.0000000000e+00 +5.5691881397e+02 5.5691881397e+02 0.0000000000e+00 0.0000e+00 -1.0000e+00
       -2 -1    0    0    0  501 -0.0000000000e+00 -0.0000000000e+00 -6.3237610271e+02 6.3237610271e+02 0.0000000000e+00 0.0000e+00 1.0000e+00
      -13  1    1    2    0    0 +2.0805776026e+02 -4.1243996789e+02 -4.1102255213e+02 6.1833186646e+02 0.0000000000e+00 0.0000e+00 1.0000e+00
       13  1    1    2    0    0 -2.0805776026e+02 +4.1243996789e+02 +3.3556526339e+02 5.7096305022e+02 0.0000000000e+00 0.0000e+00 -1.0000e+00
<mgrwt>
<rscale>  0 0.11868987E+04</rscale>
<asrwt>0</asrwt>
<pdfrwt beam="1">  1        2 0.85679818E-01 0.11868987E+04</pdfrwt>
<pdfrwt beam="2">  1       -2 0.97288631E-01 0.11868987E+04</pdfrwt>
<totfact> 0.58362893E+01</totfact>
</mgrwt>
<rwgt>
<wgt id='morphing_basis_vector_1'> +2.3637672e-04 </wgt>
<wgt id='morphing_basis_vector_2'> +1.5226854e-04 </wgt>
<wgt id='morphing_basis_vector_3'> +2.3640034e-04 </wgt>
<wgt id='morphing_basis_vector_4'> +1.5113216e-04 </wgt>
<wgt id='morphing_basis_vector_5'> +2.4118083e-04 </wgt>
</rwgt>
</event>
<event>
 4      1 +7.8865000e-07 1.11640700e+03 7.81860800e-03 8.58080500e-02
        2 -1    0    0  501    0 +0.0000000000e+00 +0.0000000000e+00 +8.7024464501e+02 8.7024464501e+02 0.0000000000e+00 0.0000e+00 -1.0000e+00
       -2 -1    0    0    0  501 -0.0000000000e+00 -0.0000000000e+00 -3.5805008638e+02 3.5805008638e+02 0.0000000000e+00 0.0000e+00 1.0000e+00
      -13  1    1    2    0    0 +2.3022344089e+02 -4.7454134776e+02 +5.5027982883e+01 5.3030218024e+02 0.0000000000e+00 0.0000e+00 1.0000e+00
       13  1    1    2    0    0 -2.3022344089e+02 +4.7454134776e+02 +4.5716657575e+02 6.9799255114e+02 0.0000000000e+00 0.0000e+00 -1.0000e+00
<mgrwt>
<rscale>  0 0.11164070E+04</rscale>
<asrwt>0</asrwt>
<pdfrwt beam="1">  1        2 0.13388379E+00 0.11164070E+04</pdfrwt>
<pdfrwt beam="2">  1       -2 0.55084629E-01 0.11164070E+04</pdfrwt>
<totfact> 0.11747604E+02</totfact>
</mgrwt>
<rwgt>
<wgt id='morphing_basis_vector_1'> +1.8918135e-04 </wgt>
<wgt id='morphing_basis_vector_2'> +1.2448657e-04 </wgt>
<wgt id='morphing_basis_vector_3'> +1.8694127e-04 </wgt>
<wgt id='morphing_basis_vector_4'> +1.1414757e-04 </wgt>
<wgt id='morphing_basis_vector_5'> +1.8571957e-04 </wgt>
</rwgt>
</event>
<event>
 4      1 +7.8865000e-07 1.12495700e+03 7.81860800e-03 8.57371200e-02
        2 -1    0    0  501    0 +0.0000000000e+00 +0.0000000000e+00 +8.2571688375e+02 8.2571688375e+02 0.0000000000e+00 0.0000e+00 -1.0000e+00
       -2 -1    0    0    0  501 -0.0000000000e+00 -0.0000000000e+00 -3.8316034383e+02 3.8316034383e+02 0.0000000000e+00 0.0000e+00 1.0000e+00
      -13  1    1    2    0    0 +2.3371230429e+02 +2.9330712711e+02 -2.2919714229e+02 4.3952456362e+02 0.0000000000e+00 0.0000e+00 1.0000e+00
       13  1    1    2    0    0 -2.3371230429e+02 -2.9330712711e+02 +6.7175368221e+02 7.6935266397e+02 0.0000000000e+00 0.0000e+00 -1.0000e+00
<mgrwt>
<rscale>  0 0.11249568E+04</rscale>
<asrwt>0</asrwt>
<pdfrwt beam="1">  1        2 0.12703337E+00 0.11249568E+04</pdfrwt>
<pdfrwt beam="2">  1       -2 0.58947745E-01 0.11249568E+04</pdfrwt>
<totfact> 0.10967964E+02</totfact>
</mgrwt>
<rwgt>
<wgt id='morphing_basis_vector_1'> +1.9292096e-04 </wgt>
<wgt id='morphing_basis_vector_2'> +1.2292878e-04 </wgt>
<wgt id='morphing_basis_vector_3'> +1.9082435e-04 </wgt>
<wgt id='morphing_basis_vector_4'> +1.2082595e-04 </wgt>
<wgt id='morphing_basis_vector_5'> +1.9205673e-04 </wgt>
</rwgt>
</event>
<event>
 4      1 +7.8865000e-07 1.07148400e+03 7.81860800e-03 8.61917700e-02
        2 -1    0    0  501    0 +0.0000000000e+00 +0.0000000000e+00 +1.0466879497e+03 1.0466879497e+03 0.0000000000e+00 0.0000e+00 -1.0000e+00
       -2 -1    0    0    0  501 -0.0000000000e+00 -0.0000000000e+00 -2.7421685334e+02 2.7421685334e+02 0.0000000000e+00 0.0000e+00 1.0000e+00
      -13  1    1    2    0    0 -1.5448412417e+02 +3.4408302927e+02 -8.2806338244e+01 3.8615458732e+02 0.0000000000e+00 0.0000e+00 1.0000e+00
       13  1    1    2    0    0 +1.5448412417e+02 -3.4408302927e+02 +8.5527743461e+02 9.3475021573e+02 0.0000000000e+00 0.0000e+00 -1.0000e+00
<mgrwt>
<rscale>  0 0.10714840E+04</rscale>
<asrwt>0</asrwt>
<pdfrwt beam="1">  1        2 0.16102891E+00 0.10714840E+04</pdfrwt>
<pdfrwt beam="2">  1       -2 0.42187209E-01 0.10714840E+04</pdfrwt>
<totfact> 0.15293322E+02</totfact>
</mgrwt>
<rwgt>
<wgt id='morphing_basis_vector_1'> +1.6081482e-04 </wgt>
<wgt id='morphing_basis_vector_2'> +1.0194434e-04 </wgt>
<wgt id='morphing_basis_vector_3'> +1.5736222e-04 </wgt>
<wgt id='morphing_basis_vector_4'> +9.8100860e-05 </wgt>
<wgt id='morphing_basis_vector_5'> +1.5591054e-04 </wgt>
</rwgt>
</event>
<event>
 4      1 +7.8865000e-07 1.13379500e+03 7.81860800e-03 8.56644900e-02
        2 -1    0    0  501    0 +0.0000000000e+00 +0.0000000000e+00 +4.4596777556e+02 4.4596777556e+02 0.0000000000e+00 0.0000e+00 -1.0000e+00
       -2 -1    0    0    0  501 -0.0000000000e+00 -0.0000000000e+00 -7.2061858790e+02 7.2061858790e+02 0.0000000000e+00 0.0000e+00 1.0000e+00
      -13  1    1    2    0    0 -3.3681324729e+02 +2.2620743640e+02 -5.4470534937e+02 6.7920312534e+02 0.0000000000e+00 0.0000e+00 1.0000e+00
       13  1    1    2    0    0 +3.3681324729e+02 -2.2620743640e+02 +2.7005453703e+02 4.8738323812e+02 0.0000000000e+00 0.0000e+00 -1.0000e+00
<mgrwt>
<rscale>  0 0.11337948E+04</rscale>
<asrwt>0</asrwt>
<pdfrwt beam="1">  1        2 0.68610428E-01 0.11337948E+04</pdfrwt>
<pdfrwt beam="2">  1       -2 0.11086440E+00 0.11337948E+04</pdfrwt>
<totfact> 0.54848377E+01</totfact>
</mgrwt>
<rwgt>
<wgt id='morphing_basis_vector_1'> +1.9875780e-04 </wgt>
<wgt id='morphing_basis_vector_2'> +1.2696132e-04 </wgt>
<wgt id='morphing_basis_vector_3'> +1.9692948e-04 </wgt>
<wgt id='morphing_basis_vector_4'> +1.2477542e-04 </wgt>
<wgt id='morphing_basis_vector_5'> +1.9856505e-04 </wgt>
</rwgt>
</event>
<event>
 4      1 +7.8865000e-07 1.18415300e+03 7.81860800e-03 8.52635100e-02
        2 -1    0    0  501    0 +0.0000000000e+00 +0.0000000000e+00 +1.0804379293e+03 1.0804379293e+03 0.0000000000e+00 0.0000e+00 1.0000e+00
       -2 -1    0    0    0  501 -0.0000000000e+00 -0.0000000000e+00 -3.2445584874e+02 3.2445584874e+02 0.0000000000e+00 0.0000e+00 -1.0000e+00
      -13  1    1    2    0    0 -5.5349859366e+02 -6.8813008258e+01 +1.4232013719e+02 5.7563091017e+02 0.0000000000e+00 0.0000e+00 -1.0000e+00
       13  1    1    2    0    0 +5.5349859366e+02 +6.8813008258e+01 +6.1366194335e+02 8.2926286786e+02 0.0000000000e+00 0.0000e+00 1.0000e+00
<mgrwt>
<rscale>  0 0.11841527E+04</rscale>
<asrwt>0</asrwt>
<pdfrwt beam="1">  1        2 0.16622122E+00 0.11841527E+04</pdfrwt>
<pdfrwt beam="2">  1       -2 0.49916285E-01 0.11841527E+04</pdfrwt>
<totfact> 0.10472188E+02</totfact>
</mgrwt>
<rwgt>
<wgt id='morphing_basis_vector_1'> +2.3608449e-04 </wgt>
<wgt id='morphing_basis_vector_2'> +1.5621407e-04 </wgt>
<wgt id='morphing_basis_vector_3'> +2.3621187e-04 </wgt>
<wgt id='morphing_basis_vector_4'> +1.4664744e-04 </wgt>
<wgt id='morphing_basis_vector_5'> +2.3862184e-04 </wgt>
</rwgt>
</event>
<event>
 4      1 +7.8865000e-07 1.16346700e+03 7.81860800e-03 8.54256300e-02
        2 -1    0    0  501    0 +0.0000000000e+00 +0.0000000000e+00 +8.9811861780e+02 8.9811861780e+02 0.0000000000e+00 0.0000e+00 -1.0000e+00
       -2 -1    0    0    0  501 -0.0000000000e+00 -0.0000000000e+00 -3.7680301933e+02 3.7680301933e+02 0.0000000000e+00 0.0000e+00 1.0000e+00
      -13  1    1    2    0    0 +8.8556145796e+00 -3.4798852957e+02 -2.5008085166e+02 4.2861972772e+02 0.0000000000e+00 0.0000e+00 1.0000e+00
       13  1    1    2    0    0 -8.8556145796e+00 +3.4798852957e+02 +7.7139645012e+02 8.4630190942e+02 0.0000000000e+00 0.0000e+00 -1.0000e+00
<mgrwt>
<rscale>  0 0.11634669E+04</rscale>
<asrwt>0</asrwt>
<pdfrwt beam="1">  1        2 0.13817209E+00 0.11634669E+04</pdfrwt>
<pdfrwt beam="2">  1       -2 0.57969695E-01 0.11634669E+04</pdfrwt>
<totfact> 0.10123039E+02</totfact>
</mgrwt>
<rwgt>
<wgt id='morphing_basis_vector_1'> +2.1889095e-04 </wgt>
<wgt id='morphing_basis_vector_2'> +1.3985732e-04 </wgt>
<wgt id='morphing_basis_vector_3'> +2.1801347e-04 </wgt>
<wgt id='morphing_basis_vector_4'> +1.3950120e-04 </wgt>
<wgt id='morphing_basis_vector_5'> +2.2165561e-04 </wgt>
</rwgt>
</event>
<event>
 4      1 +7.8865000e-07 1.18248800e+03 7.81860800e-03 8.52764300e-02
        2 -1    0    0  501    0 +0.0000000000e+00 +0.0000000000e+00 +9.6854808669e+02 9.6854808669e+02 0.0000000000e+00 0.0000e+00 -1.0000e+00
       -2 -1    0    0    0  501 -0.0000000000e+00 -0.0000000000e+00 -3.6092104892e+02 3.6092104892e+02 0.0000000000e+00 0.0000e+00 1.0000e+00
      -13  1    1    2    0    0 -3.0020348676e+02 +5.0913148907e+02 +2.8667452273e+02 6.5690127767e+02 0.0000000000e+00 0.0000e+00 1.0000e+00
       13  1    1    2    0    0 +3.0020348676e+02 -5.0913148907e+02 +3.2095251505e+02 6.7256785794e+02 0.0000000000e+00 0.0000e+00 -1.0000e+00
<mgrwt>
<rscale>  0 0.11824879E+04</rscale>
<asrwt>0</asrwt>
<pdfrwt beam="1">  1        2 0.14900740E+00 0.11824879E+04</pdfrwt>
<pdfrwt beam="2">  1       -2 0.55526315E-01 0.11824879E+04</pdfrwt>
<totfact> 0.99371843E+01</totfact>
</mgrwt>
<rwgt>
<wgt id='morphing_basis_vector_1'> +2.4022903e-04 </wgt>
<wgt id='morphing_basis_vector_2'> +1.7158071e-04 </wgt>
<wgt id='morphing_basis_vector_3'> +2.4092229e-04 </wgt>
<wgt id='morphing_basis_vector_4'> +1.3658566e-04 </wgt>
<wgt id='morphing_basis_vector_5'> +2.3658456e-04 </wgt>
</rwgt>
</event>
<event>
 4      1 +7.8865000e-07 1.13614000e+03 7.81860800e-03 8.56453300e-02
        2 -1    0    0  501    0 +0.0000000000e+00 +0.0000000000e+00 +3.2100570877e+03 3.2100570877e+03 0.0000000000e+00 0.0000e+00 1.0000e+00
       -2 -1    0    0    0  501 -0.0000000000e+00 -0.0000000000e+00 -1.0052897632e+02 1.0052897632e+02 0.0000000000e+00 0.0000e+00 -1.0000e+00
      -13  1    1    2    0    0 +4.6322494978e+02 +2.1285489778e+01 +5.9861204062e+02 7.5720987932e+02 0.0000000000e+00 0.0000e+00 -1.0000e+00
       13  1    1    2    0    0 -4.6322494978e+02 -2.1285489778e+01 +2.5109160708e+03 2.5533761847e+03 0.0000000000e+00 0.0000e+00 1.0000e+00
<mgrwt>
<rscale>  0 0.11361404E+04</rscale>
<asrwt>0</asrwt>
<pdfrwt beam="1">  1        2 0.49385486E+00 0.11361404E+04</pdfrwt>
<pdfrwt beam="2">  1       -2 0.15465999E-01 0.11361404E+04</pdfrwt>
<totfact> 0.46621581E+01</totfact>
</mgrwt>
<rwgt>
<wgt id='morphing_basis_vector_1'> +2.0062487e-04 </wgt>
<wgt id='morphing_basis_vector_2'> +1.2893779e-04 </wgt>
<wgt id='morphing_basis_vector_3'> +1.9889265e-04 </wgt>
<wgt id='morphing_basis_vector_4'> +1.2534592e-04 </wgt>
<wgt id='morphing_basis_vector_5'> +2.0028677e-04 </wgt>
</rwgt>
</event>
<event>
 4      1 +7.8865000e-07 1.10608100e+03 7.81860800e-03 8.58945900e-02
        2 -1    0    0  501    0 +0.0000000000e+00 +0.0000000000e+00 +3.4132843823e+02 3.4132843823e+02 0.0000000000e+00 0.0000e+00 -1.0000e+00
       -2 -1    0    0    0  501 -0.0000000000e+00 -0.0000000000e+00 -8.9606882043e+02 8.9606882043e+02 0.0000000000e+00 0.0000e+00 1.0000e+00
      -13  1    1    2    0    0 -2.6654479019e+02 +4.3752558582e+02 -5.1037347411e+02 7.2315686161e+02 0.0000000000e+00 0.0000e+00 1.0000e+00
       13  1    1    2    0    0 +2.6654479019e+02 -4.3752558582e+02 -4.4366908091e+01 5.1424039705e+02 0.0000000000e+00 0.0000e+00 -1.0000e+00
<mgrwt>
<rscale>  0 0.11060810E+04</rscale>
<asrwt>0</asrwt>
<pdfrwt beam="1">  1        2 0.52512068E-01 0.11060810E+04</pdfrwt>
<pdfrwt beam="2">  1       -2 0.13785674E+00 0.11060810E+04</pdfrwt>
<totfact> 0.41913962E+01</totfact>
</mgrwt>
<rwgt>
<wgt id='morphing_basis_vector_1'> +1.8234804e-04 </wgt>
<wgt id='morphing_basis_vector_2'> +1.1901992e-04 </wgt>
<wgt id='morphing_basis_vector_3'> +1.7979086e-04 </wgt>
<wgt id='morphing_basis_vector_4'> +1.1030712e-04 </wgt>
<wgt id='morphing_basis_vector_5'> +1.7852773e-04 </wgt>
</rwgt>
</event>
<event>
 4      1 +7.8865000e-07 1.12441200e+03 7.81860800e-03 8.57416300e-02
        2 -1    0    0  501    0 +0.0000000000e+00 +0.0000000000e+00 +1.0059920065e+03 1.0059920065e+03 0.0000000000e+00 0.0000e+00 1.0000e+00
       -2 -1    0    0    0  501 -0.0000000000e+00 -0.0000000000e+00 -3.1419276195e+02 3.1419276195e+02 0.0000000000e+00 0.0000e+00 -1.0000e+00
      -13  1    1    2    0    0 +8.5590375812e+01 +3.1514718146e+02 -1.9141769281e+02 3.7852898374e+02 0.0000000000e+00 0.0000e+00 -1.0000e+00
       13  1    1    2    0    0 -8.5590375812e+01 -3.1514718146e+02 +8.8321693733e+02 9.4165578467e+02 0.0000000000e+00 0.0000e+00 1.0000e+00
<mgrwt>
<rscale>  0 0.11244117E+04</rscale>
<asrwt>0</asrwt>
<pdfrwt beam="1">  1        2 0.15476800E+00 0.11244117E+04</pdfrwt>
<pdfrwt beam="2">  1       -2 0.48337348E-01 0.11244117E+04</pdfrwt>
<totfact> 0.12437815E+02</totfact>
</mgrwt>
<rwgt>
<wgt id='morphing_basis_vector_1'> +1.9248765e-04 </wgt>
<wgt id='morphing_basis_vector_2'> +1.2244942e-04 </wgt>
<wgt id='morphing_basis_vector_3'> +1.9036979e-04 </wgt>
<wgt id='morphing_basis_vector_4'> +1.2071426e-04 </wgt>
<wgt id='morphing_basis_vector_5'> +1.9166889e-04 </wgt>
</rwgt>
</event>
<event>
 4      1 +7.8865000e-07 1.11737300e+03 7.81860800e-03 8.58000100e-02
        2 -1    0    0  501    0 +0.0000000000e+00 +0.0000000000e+00 +2.0389997595e+03 2.0389997595e+03 0.0000000000e+00 0.0000e+00 1.0000e+00
       -2 -1    0    0    0  501 -0.0000000000e+00 -0.0000000000e+00 -1.5308019779e+02 1.5308019779e+02 0.0000000000e+00 0.0000e+00 -1.0000e+00
      -13  1    1    2    0    0 -4.4647892441e+02 +1.4610520044e+02 +3.4972420688e+02 5.8565961139e+02 0.0000000000e+00 0.0000e+00 -1.0000e+00
       13  1    1    2    0    0 +4.4647892441e+02 -1.4610520044e+02 +1.5361953548e+03 1.6064203459e+03 0.0000000000e+00 0.0000e+00 1.0000e+00
<mgrwt>
<rscale>  0 0.11173728E+04</rscale>
<asrwt>0</asrwt>
<pdfrwt beam="1">  1        2 0.31369225E+00 0.11173728E+04</pdfrwt>
<pdfrwt beam="2">  1       -2 0.23550801E-01 0.11173728E+04</pdfrwt>
<totfact> 0.11884330E+02</totfact>
</mgrwt>
<rwgt>
<wgt id='morphing_basis_vector_1'> +1.8858219e-04 </wgt>
<wgt id='morphing_basis_vector_2'> +1.2124664e-04 </wgt>
<wgt id='morphing_basis_vector_3'> +1.8629898e-04 </wgt>
<wgt id='morphing_basis_vector_4'> +1.1657649e-04 </wgt>
<wgt id='morphing_basis_vector_5'> +1.8653710e-04 </wgt>
</rwgt>
</event>
<event>
 4      1 +7.8865000e-07 1.21225000e+03 7.81860800e-03 8.50488100e-02
        2 -1    0    0  501    0 +0.0000000000e+00 +0.0000000000e+00 +1.3631139124e+03 1.3631139124e+03 0.0000000000e+00 0.0000e+00 -1.0000e+00
       -2 -1    0    0    0  501 -0.0000000000e+00 -0.0000000000e+00 -2.6952099179e+02 2.6952099179e+02 0.0000000000e+00 0.0000e+00 1.0000e+00
      -13  1    1    2    0    0 -2.4784652681e+01 +5.7030682096e+02 +8.2123464955e+02 1.0001452388e+03 0.0000000000e+00 0.0000e+00 1.0000e+00
       13  1    1    2    0    0 +2.4784652681e+01 -5.7030682096e+02 +2.7235827108e+02 6.3248966542e+02 0.0000000000e+00 0.0000e+00 -1.0000e+00
<mgrwt>
<rscale>  0 0.12122505E+04</rscale>
<asrwt>0</asrwt>
<pdfrwt beam="1">  1        2 0.20970983E+00 0.12122505E+04</pdfrwt>
<pdfrwt beam="2">  1       -2 0.41464769E-01 0.12122505E+04</pdfrwt>
<totfact> 0.10214328E+02</totfact>
</mgrwt>
<rwgt>
<wgt id='morphing_basis_vector_1'> +2.8428100e-04 </wgt>
<wgt id='morphing_basis_vector_2'> +2.5009473e-04 </wgt>
<wgt id='morphing_basis_vector_3'> +2.8932765e-04 </wgt>
<wgt id='morphing_basis_vector_4'> +1.1656641e-04 </wgt>
<wgt id='morphing_basis_vector_5'> +2.6043126e-04 </wgt>
</rwgt>
</event>
<event>
 4      1 +7.8865000e-07 1.13674300e+03 7.81860800e-03 8.56404100e-02
        2 -1    0    0  501    0 +0.0000000000e+00 +0.0000000000e+00 +1.1723070687e+03 1.1723070687e+03 0.0000000000e+00 0.0000e+00 -1.0000e+00
       -2 -1    0    0    0  501 -0.0000000000e+00 -0.0000000000e+00 -2.7556449383e+02 2.7556449383e+02 0.0000000000e+00 0.0000e+00 1.0000e+00
      -13  1    1    2    0    0 +1.0431729526e+02 +4.7978972070e+02 +8.3714411946e+01 4.9808470861e+02 0.0000000000e+00 0.0000e+00 1.0000e+00
       13  1    1    2    0    0 -1.0431729526e+02 -4.7978972070e+02 +8.1302816289e+02 9.4978685390e+02 0.0000000000e+00 0.0000e+00 -1.0000e+00
<mgrwt>
<rscale>  0 0.11367431E+04</rscale>
<asrwt>0</asrwt>
<pdfrwt beam="1">  1        2 0.18035493E+00 0.11367431E+04</pdfrwt>
<pdfrwt beam="2">  1       -2 0.42394538E-01 0.11367431E+04</pdfrwt>
<totfact> 0.12685890E+02</totfact>
</mgrwt>
<rwgt>
<wgt id='morphing_basis_vector_1'> +2.0131749e-04 </wgt>
<wgt id='morphing_basis_vector_2'> +1.3008305e-04 </wgt>
<wgt id='morphing_basis_vector_3'> +1.9962669e-04 </wgt>
<wgt id='morphing_basis_vector_4'> +1.2514043e-04 </wgt>
<wgt id='morphing_basis_vector_5'> +2.0070775e-04 </wgt>
</rwgt>
</event>
<event>
 4      1 +7.8865000e-07 1.18797500e+03 7.81860800e-03 8.52339400e-02
        2 -1    0    0  501    0 +0.0000000000e+00 +0.0000000000e+00 +3.7491842444e+02 3.7491842444e+02 0.0000000000e+00 0.0000e+00 1.0000e+00
       -2 -1    0    0    0  501 -0.0000000000e+00 -0.0000000000e+00 -9.4106040981e+02 9.4106040981e+02 0.0000000000e+00 0.0000e+00 -1.0000e+00
      -13  1    1    2    0    0 +4.9975793839e+02 -7.7873869132e+01 +6.1933210230e+01 5.0956654031e+02 0.0000000000e+00 0.0000e+00 1.0000e+00
       13  1    1    2    0    0 -4.9975793839e+02 +7.7873869132e+01 -6.2807519560e+02 8.0641229393e+02 0.0000000000e+00 0.0000e+00 -1.0000e+00
<mgrwt>
<rscale>  0 0.11879746E+04</rscale>
<asrwt>0</asrwt>
<pdfrwt beam="1">  1        2 0.57679758E-01 0.11879746E+04</pdfrwt>
<pdfrwt beam="2">  1       -2 0.14477852E+00 0.11879746E+04</pdfrwt>
<totfact> 0.32702158E+01</totfact>
</mgrwt>
<rwgt>
<wgt id='morphing_basis_vector_1'> +2.8262382e-04 </wgt>
<wgt id='morphing_basis_vector_2'> +2.8934852e-04 </wgt>
<wgt id='morphing_basis_vector_3'> +2.8822534e-04 </wgt>
<wgt id='morphing_basis_vector_4'> +7.4129985e-05 </wgt>
<wgt id='morphing_basis_vector_5'> +2.3687551e-04 </wgt>
</rwgt>
</event>
<event>
 4      1 +7.8865000e-07 1.12087300e+03 7.81860800e-03 8.57709200e-02
        2 -1    0    0  501    0 +0.0000000000e+00 +0.0000000000e+00 +1.3170635445e+03 1.3170635445e+03 0.0000000000e+00 0.0000e+00 -1.0000e+00
       -2 -1    0    0    0  501 -0.0000000000e+00 -0.0000000000e+00 -2.3847680156e+02 2.3847680156e+02 0.0000000000e+00 0.0000e+00 1.0000e+00
      -13  1    1    2    0    0 +4.4422709242e+02 -3.0098730843e+02 +3.1483935334e+02 6.2213735452e+02 0.0000000000e+00 0.0000e+00 1.0000e+00
       13  1    1    2    0    0 -4.4422709242e+02 +3.0098730843e+02 +7.6374738955e+02 9.3340299149e+02 0.0000000000e+00 0.0000e+00 -1.0000e+00
<mgrwt>
<rscale>  0 0.11208731E+04</rscale>
<asrwt>0</asrwt>
<pdfrwt beam="1">  1        2 0.20262516E+00 0.11208731E+04</pdfrwt>
<pdfrwt beam="2">  1       -2 0.36688739E-01 0.11208731E+04</pdfrwt>
<totfact> 0.13708588E+02</totfact>
</mgrwt>
<rwgt>
<wgt id='morphing_basis_vector_1'> +1.9238038e-04 </wgt>
<wgt id='morphing_basis_vector_2'> +1.2745960e-04 </wgt>
<wgt id='morphing_basis_vector_3'> +1.9029640e-04 </wgt>
<wgt id='morphing_basis_vector_4'> +1.1553241e-04 </wgt>
<wgt id='morphing_basis_vector_5'> +1.8887493e-04 </wgt>
</rwgt>
</event>
<event>
 4      1 +7.8865000e-07 1.23098400e+03 7.81860800e-03 8.49090300e-02
        2 -1    0    0  501    0 +0.0000000000e+00 +0.0000000000e+00 +4.5743909678e+02 4.5743909678e+02 0.0000000000e+00 0.0000e+00 -1.0000e+00
       -2 -1    0    0    0  501 -0.0000000000e+00 -0.0000000000e+00 -8.2815525645e+02 8.2815525645e+02 0.0000000000e+00 0.0000e+00 1.0000e+00
      -13  1    1    2    0    0 -4.8623394517e+02 -1.6513503403e+02 -5.3973053423e+02 7.4498461627e+02 0.0000000000e+00 0.0000e+00 1.0000e+00
       13  1    1    2    0    0 +4.8623394517e+02 +1.6513503403e+02 +1.6901437456e+02 5.4060973697e+02 0.0000000000e+00 0.0000e+00 -1.0000e+00
<mgrwt>
<rscale>  0 0.12309843E+04</rscale>
<asrwt>0</asrwt>
<pdfrwt beam="1">  1        2 0.70375246E-01 0.12309843E+04</pdfrwt>
<pdfrwt beam="2">  1       -2 0.12740850E+00 0.12309843E+04</pdfrwt>
<totfact> 0.36916077E+01</totfact>
</mgrwt>
<rwgt>
<wgt id='morphing_basis_vector_1'> +2.7171350e-04 </wgt>
<wgt id='morphing_basis_vector_2'> +1.7652723e-04 </wgt>
<wgt id='morphing_basis_vector_3'> +2.7366557e-04 </wgt>
<wgt id='morphing_basis_vector_4'> +1.7566686e-04 </wgt>
<wgt id='morphing_basis_vector_5'> +2.8135814e-04 </wgt>
</rwgt>
</event>
<event>
 4      1 +7.8865000e-07 1.08214000e+03 7.81860800e-03 8.60990200e-02
        2 -1    0    0  501    0 +0.0000000000e+00 +0.0000000000e+00 +1.1113521635e+03 1.1113521635e+03 0.0000000000e+00 0.0000e+00 -1.0000e+00
       -2 -1    0    0    0  501 -0.0000000000e+00 -0.0000000000e+00 -2.6342408570e+02 2.6342408570e+02 0.0000000000e+00 0.0000e+00 1.0000e+00
      -13  1    1    2    0    0 -3.1792016044e+02 +3.0162929023e+02 +2.0810335788e+01 4.3873286544e+02 0.0000000000e+00 0.0000e+00 1.0000e+00
       13  1    1    2    0    0 +3.1792016044e+02 -3.0162929023e+02 +8.2711774199e+02 9.3604338374e+02 0.0000000000e+00 0.0000e+00 -1.0000e+00
<mgrwt>
<rscale>  0 0.10821403E+04</rscale>
<asrwt>0</asrwt>
<pdfrwt beam="1">  1        2 0.17097725E+00 0.10821403E+04</pdfrwt>
<pdfrwt beam="2">  1       -2 0.40526783E-01 0.10821403E+04</pdfrwt>
<totfact> 0.15061522E+02</totfact>
</mgrwt>
<rwgt>
<wgt id='morphing_basis_vector_1'> +1.6712654e-04 </wgt>
<wgt id='morphing_basis_vector_2'> +1.0669706e-04 </wgt>
<wgt id='morphing_basis_vector_3'> +1.6392074e-04 </wgt>
<wgt id='morphing_basis_vector_4'> +1.0191974e-04 </wgt>
<wgt id='morphing_basis_vector_5'> +1.6264988e-04 </wgt>
</rwgt>
</event>
<event>
 4      1 +7.8865000e-07 1.14861100e+03 7.81860800e-03 8.55442600e-02
        2 -1    0    0  501    0 +0.0000000000e+00 +0.0000000000e+00 +7.0001456543e+02 7.0001456543e+02 0.0000000000e+00 0.0000e+00 1.0000e+00
       -2 -1    0    0    0  501 -0.0000000000e+00 -0.0000000000e+00 -4.7117175359e+02 4.7117175359e+02 0.0000000000e+00 0.0000e+00 -1.0000e+00
      -13  1    1    2    0    0 +8.6352093011e+01 -5.3297678605e+02 -8.5144843953e+01 5.4659910619e+02 0.0000000000e+00 0.0000e+00 -1.0000e+00
       13  1    1    2    0    0 -8.6352093011e+01 +5.3297678605e+02 +3.1398765579e+02 6.2458721283e+02 0.0000000000e+00 0.0000e+00 1.0000e+00
<mgrwt>
<rscale>  0 0.11486115E+04</rscale>
<asrwt>0</asrwt>
<pdfrwt beam="1">  1        2 0.10769455E+00 0.11486115E+04</pdfrwt>
<pdfrwt beam="2">  1       -2 0.72487963E-01 0.11486115E+04</pdfrwt>
<totfact> 0.87384254E+01</totfact>
</mgrwt>
<rwgt>
<wgt id='morphing_basis_vector_1'> +2.1040477e-04 </wgt>
<wgt id='morphing_basis_vector_2'> +1.3863695e-04 </wgt>
<wgt id='morphing_basis_vector_3'> +2.0919301e-04 </wgt>
<wgt id='morphing_basis_vector_4'> +1.2898930e-04 </wgt>
<wgt id='morphing_basis_vector_5'> +2.0966419e-04 </wgt>
</rwgt>
</event>
<event>
 4      1 +7.8865000e-07 1.25612100e+03 7.81860800e-03 8.47255300e-02
        2 -1    0    0  501    0 +0.0000000000e+00 +0.0000000000e+00 +1.0172908792e+03 1.0172908792e+03 0.0000000000e+00 0.0000e+00 1.0000e+00
       -2 -1    0    0    0  501 -0.0000000000e+00 -0.0000000000e+00 -3.8775557322e+02 3.8775557322e+02 0.0000000000e+00 0.0000e+00 -1.0000e+00
      -13  1    1    2    0    0 +4.5826404857e+01 +3.0341026811e+02 +9.2773657843e+02 9.7716580433e+02 0.0000000000e+00 0.0000e+00 1.0000e+00
       13  1    1    2    0    0 -4.5826404857e+01 -3.0341026811e+02 -2.9820127242e+02 4.2788064814e+02 0.0000000000e+00 0.0000e+00 -1.0000e+00
<mgrwt>
<rscale>  0 0.12561213E+04</rscale>
<asrwt>0</asrwt>
<pdfrwt beam="1">  1        2 0.15650629E+00 0.12561213E+04</pdfrwt>
<pdfrwt beam="2">  1       -2 0.59654704E-01 0.12561213E+04</pdfrwt>
<totfact> 0.79645924E+01</totfact>
</mgrwt>
<rwgt>
<wgt id='morphing_basis_vector_1'> +3.9570479e-04 </wgt>
<wgt id='morphing_basis_vector_2'> +4.9781026e-04 </wgt>
<wgt id='morphing_basis_vector_3'> +4.1665210e-04 </wgt>
<wgt id='morphing_basis_vector_4'> +1.2071509e-05 </wgt>
<wgt id='morphing_basis_vector_5'> +2.9395053e-04 </wgt>
</rwgt>
</event>
<event>
 4      1 +7.8865000e-07 1.23674300e+03 7.81860800e-03 8.48665800e-02
        2 -1    0    0  501    0 +0.0000000000e+00 +0.0000000000e+00 +2.9053871123e+03 2.9053871123e+03 0.0000000000e+00 0.0000e+00 1.0000e+00
       -2 -1    0    0    0  501 -0.0000000000e+00 -0.0000000000e+00 -1.3161189091e+02 1.3161189091e+02 0.0000000000e+00 0.0000e+00 -1.0000e+00
      -13  1    1    2    0    0 +2.3015119637e+02 -5.4877132228e+02 +9.7404782138e+02 1.1414414990e+03 0.0000000000e+00 0.0000e+00 -1.0000e+00
       13  1    1    2    0    0 -2.3015119637e+02 +5.4877132228e+02 +1.7997274000e+03 1.8955575042e+03 0.0000000000e+00 0.0000e+00 1.0000e+00
<mgrwt>
<rscale>  0 0.12367433E+04</rscale>
<asrwt>0</asrwt>
<pdfrwt beam="1">  1        2 0.44698258E+00 0.12367433E+04</pdfrwt>
<pdfrwt beam="2">  1       -2 0.20247985E-01 0.12367433E+04</pdfrwt>
<totfact> 0.46686153E+01</totfact>
</mgrwt>
<rwgt>
<wgt id='morphing_basis_vector_1'> +2.7914704e-04 </wgt>
<wgt id='morphing_basis_vector_2'> +1.8750686e-04 </wgt>
<wgt id='morphing_basis_vector_3'> +2.8178328e-04 </wgt>
<wgt id='morphing_basis_vector_4'> +1.7466485e-04 </wgt>
<wgt id='morphing_basis_vector_5'> +2.8664447e-04 </wgt>
</rwgt>
</event>
<event>
 4      1 +7.8865000e-07 1.09461500e+03 7.81860800e-03 8.59918300e-02
        2 -1    0    0  501    0 +0.0000000000e+00 +0.0000000000e+00 +1.0235851643e+03 1.0235851643e+03 0.0000000000e+00 0.0000e+00 -1.0000e+00
       -2 -1    0    0    0  501 -0.0000000000e+00 -0.0000000000e+00 -2.9264324199e+02 2.9264324199e+02 0.0000000000e+00 0.0000e+00 1.0000e+00
      -13  1    1    2    0    0 +5.1053432601e+02 -1.0023768529e+02 +5.6972042012e+02 7.7154017956e+02 0.0000000000e+00 0.0000e+00 1.0000e+00
       13  1    1    2    0    0 -5.1053432601e+02 +1.0023768529e+02 +1.6122150221e+02 5.4468822675e+02 0.0000000000e+00 0.0000e+00 -1.0000e+00
<mgrwt>
<rscale>  0 0.10946146E+04</rscale>
<asrwt>0</asrwt>
<pdfrwt beam="1">  1        2 0.15747464E+00 0.10946146E+04</pdfrwt>
<pdfrwt beam="2">  1       -2 0.45022038E-01 0.10946146E+04</pdfrwt>
<totfact> 0.13941566E+02</totfact>
</mgrwt>
<rwgt>
<wgt id='morphing_basis_vector_1'> +1.9195554e-04 </wgt>
<wgt id='morphing_basis_vector_2'> +1.6433515e-04 </wgt>
<wgt id='morphing_basis_vector_3'> +1.8969986e-04 </wgt>
<wgt id='morphing_basis_vector_4'> +7.8388635e-05 </wgt>
<wgt id='morphing_basis_vector_5'> +1.6900311e-04 </wgt>
</rwgt>
</event>
<event>
 4      1 +7.8865000e-07 1.09578700e+03 7.81860800e-03 8.59818300e-02
        2 -1    0    0  501    0 +0.0000000000e+00 +0.0000000000e+00 +1.1728337004e+03 1.1728337004e+03 0.0000000000e+00 0.0000e+00 1.0000e+00
       -2 -1    0    0    0  501 -0.0000000000e+00 -0.0000000000e+00 -2.5595021567e+02 2.5595021567e+02 0.0000000000e+00 0.0000e+00 -1.0000e+00
      -13  1    1    2    0    0 +1.5034436046e+02 -5.2490502510e+02 +3.9928588983e+02 6.7643028755e+02 0.0000000000e+00 0.0000e+00 -1.0000e+00
       13  1    1    2    0    0 -1.5034436046e+02 +5.2490502510e+02 +5.1759759487e+02 7.5235362850e+02 0.0000000000e+00 0.0000e+00 1.0000e+00
<mgrwt>
<rscale>  0 0.10957865E+04</rscale>
<asrwt>0</asrwt>
<pdfrwt beam="1">  1        2 0.18043595E+00 0.10957865E+04</pdfrwt>
<pdfrwt beam="2">  1       -2 0.39376957E-01 0.10957865E+04</pdfrwt>
<totfact> 0.14600367E+02</totfact>
</mgrwt>
<rwgt>
<wgt id='morphing_basis_vector_1'> +1.7930763e-04 </wgt>
<wgt id='morphing_basis_vector_2'> +1.2454680e-04 </wgt>
<wgt id='morphing_basis_vector_3'> +1.7659408e-04 </wgt>
<wgt id='morphing_basis_vector_4'> +1.0070558e-04 </wgt>
<wgt id='morphing_basis_vector_5'> +1.7118670e-04 </wgt>
</rwgt>
</event>
<event>
 4      1 +7.8865000e-07 1.24005700e+03 7.81860800e-03 8.48422700e-02
        2 -1    0    0  501    0 +0.0000000000e+00 +0.0000000000e+00 +1.0991215638e+03 1.0991215638e+03 0.0000000000e+00 0.0000e+00 1.0000e+00
       -2 -1    0    0    0  501 -0.0000000000e+00 -0.0000000000e+00 -3.4976611560e+02 3.4976611560e+02 0.0000000000e+00 0.0000e+00 -1.0000e+00
      -13  1    1    2    0    0 -3.7902960481e+02 -4.1559122167e+02 +6.9869891358e+01 5.6679917658e+02 0.0000000000e+00 0.0000e+00 -1.0000e+00
       13  1    1    2    0    0 +3.7902960481e+02 +4.1559122167e+02 +6.7948555686e+02 8.8208850283e+02 0.0000000000e+00 0.0000e+00 1.0000e+00
<mgrwt>
<rscale>  0 0.12400572E+04</rscale>
<asrwt>0</asrwt>
<pdfrwt beam="1">  1        2 0.16909562E+00 0.12400572E+04</pdfrwt>
<pdfrwt beam="2">  1       -2 0.53810172E-01 0.12400572E+04</pdfrwt>
<totfact> 0.87585510E+01</totfact>
</mgrwt>
<rwgt>
<wgt id='morphing_basis_vector_1'> +2.8028877e-04 </wgt>
<wgt id='morphing_basis_vector_2'> +1.8434683e-04 </wgt>
<wgt id='morphing_basis_vector_3'> +2.8281823e-04 </wgt>
<wgt id='morphing_basis_vector_4'> +1.7961592e-04 </wgt>
<wgt id='morphing_basis_vector_5'> +2.9010236e-04 </wgt>
</rwgt>
</event>
<event>
 4      1 +7.8865000e-07 1.28223200e+03 7.81860800e-03 8.45396200e-02
        2 -1    0    0  501    0 +0.0000000000e+00 +0.0000000000e+00 +9.6123490294e+02 9.6123490294e+02 0.0000000000e+00 0.0000e+00 1.0000e+00
       -2 -1    0    0    0  501 -0.0000000000e+00 -0.0000000000e+00 -4.2760597023e+02 4.2760597023e+02 0.0000000000e+00 0.0000e+00 -1.0000e+00
      -13  1    1    2    0    0 -5.2384687952e+02 +3.5750843947e+02 +1.6519540174e+02 6.5537573821e+02 0.0000000000e+00 0.0000e+00 -1.0000e+00
       13  1    1    2    0    0 +5.2384687952e+02 -3.5750843947e+02 +3.6843353097e+02 7.3346513497e+02 0.0000000000e+00 0.0000e+00 1.0000e+00
<mgrwt>
<rscale>  0 0.12822321E+04</rscale>
<asrwt>0</asrwt>
<pdfrwt beam="1">  1        2 0.14788229E+00 0.12822321E+04</pdfrwt>
<pdfrwt beam="2">  1       -2 0.65785534E-01 0.12822321E+04</pdfrwt>
<totfact> 0.70362106E+01</totfact>
</mgrwt>
<rwgt>
<wgt id='morphing_basis_vector_1'> +3.2286743e-04 </wgt>
<wgt id='morphing_basis_vector_2'> +2.2373020e-04 </wgt>
<wgt id='morphing_basis_vector_3'> +3.2853151e-04 </wgt>
<wgt id='morphing_basis_vector_4'> +1.9862398e-04 </wgt>
<wgt id='morphing_basis_vector_5'> +3.3338864e-04 </wgt>
</rwgt>
</event>
<event>
 4      1 +7.8865000e-07 1.11148900e+03 7.81860800e-03 8.58491400e-02
        2 -1    0    0  501    0 +0.0000000000e+00 +0.0000000000e+00 +1.4999179505e+03 1.4999179505e+03 0.0000000000e+00 0.0000e+00 1.0000e+00
       -2 -1    0    0    0  501 -0.0000000000e+00 -0.0000000000e+00 -2.0591273124e+02 2.0591273124e+02 0.0000000000e+00 0.0000e+00 -1.0000e+00
      -13  1    1    2    0    0 -2.7598405343e+02 +4.7469855021e+02 +7.7854466517e+02 9.5270021884e+02 0.0000000000e+00 0.0000e+00 1.0000e+00
       13  1    1    2    0    0 +2.7598405343e+02 -4.7469855021e+02 +5.1546055409e+02 7.5313046289e+02 0.0000000000e+00 0.0000e+00 -1.0000e+00
<mgrwt>
<rscale>  0 0.11114895E+04</rscale>
<asrwt>0</asrwt>
<pdfrwt beam="1">  1        2 0.23075660E+00 0.11114895E+04</pdfrwt>
<pdfrwt beam="2">  1       -2 0.31678883E-01 0.11114895E+04</pdfrwt>
<totfact> 0.14116192E+02</totfact>
</mgrwt>
<rwgt>
<wgt id='morphing_basis_vector_1'> +1.9561718e-04 </wgt>
<wgt id='morphing_basis_vector_2'> +1.5113413e-04 </wgt>
<wgt id='morphing_basis_vector_3'> +1.9374401e-04 </wgt>
<wgt id='morphing_basis_vector_4'> +9.6281546e-05 </wgt>
<wgt id='morphing_basis_vector_5'> +1.8123049e-04 </wgt>
</rwgt>
</event>
<event>
 4      1 +7.8865000e-07 1.25402400e+03 7.81860800e-03 8.47406600e-02
        2 -1    0    0  501    0 +0.0000000000e+00 +0.0000000000e+00 +7.6101905668e+02 7.6101905668e+02 0.0000000000e+00 0.0000e+00 -1.0000e+00
       -2 -1    0    0    0  501 -0.0000000000e+00 -0.0000000000e+00 -5.1660194125e+02 5.1660194125e+02 0.0000000000e+00 0.0000e+00 1.0000e+00
      -13  1    1    2    0    0 -2.0368933488e+02 -1.9582829818e+02 -4.4806143181e+02 5.2971418160e+02 0.0000000000e+00 0.0000e+00 1.0000e+00
       13  1    1    2    0    0 +2.0368933488e+02 +1.9582829818e+02 +6.9247854725e+02 7.4790681633e+02 0.0000000000e+00 0.0000e+00 -1.0000e+00
<mgrwt>
<rscale>  0 0.12540238E+04</rscale>
<asrwt>0</asrwt>
<pdfrwt beam="1">  1        2 0.11707986E+00 0.12540238E+04</pdfrwt>
<pdfrwt beam="2">  1       -2 0.79477222E-01 0.12540238E+04</pdfrwt>
<totfact> 0.63727719E+01</totfact>
</mgrwt>
<rwgt>
<wgt id='morphing_basis_vector_1'> +2.9060744e-04 </wgt>
<wgt id='morphing_basis_vector_2'> +1.8699202e-04 </wgt>
<wgt id='morphing_basis_vector_3'> +2.9352666e-04 </wgt>
<wgt id='morphing_basis_vector_4'> +1.9153143e-04 </wgt>
<wgt id='morphing_basis_vector_5'> +3.0434799e-04 </wgt>
</rwgt>
</event>
<event>
 4      1 +7.8865000e-07 1.16403100e+03 7.81860800e-03 8.54211600e-02
        2 -1    0    0  501    0 +0.0000000000e+00 +0.0000000000e+00 +6.7812539279e+02 6.7812539279e+02 0.0000000000e+00 0.0000e+00 1.0000e+00
       -2 -1    0    0    0  501 -0.0000000000e+00 -0.0000000000e+00 -4.9952729536e+02 4.9952729536e+02 0.0000000000e+00 0.0000e+00 -1.0000e+00
      -13  1    1    2    0    0 +3.8146345755e+02 +1.5830195693e+02 -3.2558299374e+02 5.2590699257e+02 0.0000000000e+00 0.0000e+00 -1.0000e+00
       13  1    1    2    0    0 -3.8146345755e+02 -1.5830195693e+02 +5.0418109117e+02 6.5174569558e+02 0.0000000000e+00 0.0000e+00 1.0000e+00
<mgrwt>
<rscale>  0 0.11640312E+04</rscale>
<asrwt>0</asrwt>
<pdfrwt beam="1">  1        2 0.10432698E+00 0.11640312E+04</pdfrwt>
<pdfrwt beam="2">  1       -2 0.76850353E-01 0.11640312E+04</pdfrwt>
<totfact> 0.79800893E+01</totfact>
</mgrwt>
<rwgt>
<wgt id='morphing_basis_vector_1'> +2.1944708e-04 </wgt>
<wgt id='morphing_basis_vector_2'> +1.4058920e-04 </wgt>
<wgt id='morphing_basis_vector_3'> +2.1860502e-04 </wgt>
<wgt id='morphing_basis_vector_4'> +1.3952480e-04 </wgt>
<wgt id='morphing_basis_vector_5'> +2.2209509e-04 </wgt>
</rwgt>
</event>
<event>
 4      1 +7.8865000e-07 1.08457000e+03 7.81860800e-03 8.60780200e-02
        2 -1    0    0  501    0 +0.0000000000e+00 +0.0000000000e+00 +1.5838203770e+03 1.5838203770e+03 0.0000000000e+00 0.0000e+00 1.0000e+00
       -2 -1    0    0    0  501 -0.0000000000e+00 -0.0000000000e+00 -1.8567316273e+02 1.8567316273e+02 0.0000000000e+00 0.0000e+00 -1.0000e+00
      -13  1    1    2    0    0 -4.6370744745e+02 +1.5614009933e+02 +3.1760353148e+02 5.8333209293e+02 0.0000000000e+00 0.0000e+00 -1.0000e+00
       13  1    1    2    0    0 +4.6370744745e+02 -1.5614009933e+02 +1.0805436828e+03 1.1861614468e+03 0.0000000000e+00 0.0000e+00 1.0000e+00
<mgrwt>
<rscale>  0 0.10845698E+04</rscale>
<asrwt>0</asrwt>
<pdfrwt beam="1">  1        2 0.24366467E+00 0.10845698E+04</pdfrwt>
<pdfrwt beam="2">  1       -2 0.28565103E-01 0.10845698E+04</pdfrwt>
<totfact> 0.15258563E+02</totfact>
</mgrwt>
<rwgt>
<wgt id='morphing_basis_vector_1'> +1.6912115e-04 </wgt>
<wgt id='morphing_basis_vector_2'> +1.0940009e-04 </wgt>
<wgt id='morphing_basis_vector_3'> +1.6598862e-04 </wgt>
<wgt id='morphing_basis_vector_4'> +1.0194363e-04 </wgt>
<wgt id='morphing_basis_vector_5'> +1.6416083e-04 </wgt>
</rwgt>
</event>
<event>
 4      1 +7.8865000e-07 1.19591600e+03 7.81860800e-03 8.51728700e-02
        2 -1    0    0  501    0 +0.0000000000e+00 +0.0000000000e+00 +2.2848534100e+03 2.2848534100e+03 0.0000000000e+00 0.0000e+00 -1.0000e+00
       -2 -1    0    0    0  501 -0.0000000000e+00 -0.0000000000e+00 -1.5648875321e+02 1.5648875321e+02 0.0000000000e+00 0.0000e+00 1.0000e+00
      -13  1    1    2    0    0 +4.6352369726e+02 +3.0577163124e+01 +2.9556186707e+02 5.5058695780e+02 0.0000000000e+00 0.0000e+00 1.0000e+00
       13  1    1    2    0    0 -4.6352369726e+02 -3.0577163124e+01 +1.8328027897e+03 1.8907552055e+03 0.0000000000e+00 0.0000e+00 -1.0000e+00
<mgrwt>
<rscale>  0 0.11959162E+04</rscale>
<asrwt>0</asrwt>
<pdfrwt beam="1">  1        2 0.35151588E+00 0.11959162E+04</pdfrwt>
<pdfrwt beam="2">  1       -2 0.24075194E-01 0.11959162E+04</pdfrwt>
<totfact> 0.82516726E+01</totfact>
</mgrwt>
<rwgt>
<wgt id='morphing_basis_vector_1'> +2.4323153e-04 </wgt>
<wgt id='morphing_basis_vector_2'> +1.5680336e-04 </wgt>
<wgt id='morphing_basis_vector_3'> +2.4361129e-04 </wgt>
<wgt id='morphing_basis_vector_4'> +1.5605029e-04 </wgt>
<wgt id='morphing_basis_vector_5'> +2.4903901e-04 </wgt>
</rwgt>
</event>
<event>
 4      1 +7.8865000e-07 1.13580900e+03 7.81860800e-03 8.56480300e-02
        2 -1    0    0  501    0 +0.0000000000e+00 +0.0000000000e+00 +6.7818819134e+02 6.7818819134e+02 0.0000000000e+00 0.0000e+00 -1.0000e+00
       -2 -1    0    0    0  501 -0.0000000000e+00 -0.0000000000e+00 -4.7555446359e+02 4.7555446359e+02 0.0000000000e+00 0.0000e+00 1.0000e+00
      -13  1    1    2    0    0 -3.6146922424e+02 +4.0640718886e+02 -6.4629123689e+01 5.4772595963e+02 0.0000000000e+00 0.0000e+00 1.0000e+00
       13  1    1    2    0    0 +3.6146922424e+02 -4.0640718886e+02 +2.6726285144e+02 6.0601669530e+02 0.0000000000e+00 0.0000e+00 -1.0000e+00
<mgrwt>
<rscale>  0 0.11358088E+04</rscale>
<asrwt>0</asrwt>
<pdfrwt beam="1">  1        2 0.10433664E+00 0.11358088E+04</pdfrwt>
<pdfrwt beam="2">  1       -2 0.73162225E-01 0.11358088E+04</pdfrwt>
<totfact> 0.89102317E+01</totfact>
</mgrwt>
<rwgt>
<wgt id='morphing_basis_vector_1'> +2.0219926e-04 </wgt>
<wgt id='morphing_basis_vector_2'> +1.3419432e-04 </wgt>
<wgt id='morphing_basis_vector_3'> +2.0059420e-04 </wgt>
<wgt id='morphing_basis_vector_4'> +1.2219544e-04 </wgt>
<wgt id='morphing_basis_vector_5'> +1.9984105e-04 </wgt>
</rwgt>
</event>
<event>
 4      1 +7.8865000e-07 1.25198100e+03 7.81860800e-03 8.47554400e-02
        2 -1    0    0  501    0 +0.0000000000e+00 +0.0000000000e+00 +3.0888365616e+02 3.0888365616e+02 0.0000000000e+00 0.0000e+00 1.0000e+00
       -2 -1    0    0    0  501 -0.0000000000e+00 -0.0000000000e+00 -1.2686468353e+03 1.2686468353e+03 0.0000000000e+00 0.0000e+00 -1.0000e+00
      -13  1    1    2    0    0 -5.6792175518e+02 -1.3673501506e+02 -1.9635393453e+02 6.1626816562e+02 0.0000000000e+00 0.0000e+00 -1.0000e+00
       13  1    1    2    0    0 +5.6792175518e+02 +1.3673501506e+02 -7.6340924461e+02 9.6126232585e+02 0.0000000000e+00 0.0000e+00 1.0000e+00
<mgrwt>
<rscale>  0 0.12519813E+04</rscale>
<asrwt>0</asrwt>
<pdfrwt beam="1">  1        2 0.47520562E-01 0.12519813E+04</pdfrwt>
<pdfrwt beam="2">  1       -2 0.19517644E+00 0.12519813E+04</pdfrwt>
<totfact> 0.16318129E+01</totfact>
</mgrwt>
<rwgt>
<wgt id='morphing_basis_vector_1'> +3.2375286e-04 </wgt>
<wgt id='morphing_basis_vector_2'> +2.9059046e-04 </wgt>
<wgt id='morphing_basis_vector_3'> +3.3253357e-04 </wgt>
<wgt id='morphing_basis_vector_4'> +1.2912190e-04 </wgt>
<wgt id='morphing_basis_vector_5'> +2.9803190e-04 </wgt>
</rwgt>
</event>
<event>
 4      1 +7.8865000e-07 1.12579500e+03 7.81860800e-03 8.57302000e-02
        2 -1    0    0  501    0 +0.0000000000e+00 +0.0000000000e+00 +1.8996739630e+03 1.8996739630e+03 0.0000000000e+00 0.0000e+00 -1.0000e+00
       -2 -1    0    0    0  501 -0.0000000000e+00 -0.0000000000e+00 -1.6679380889e+02 1.6679380889e+02 0.0000000000e+00 0.0000e+00 1.0000e+00
      -13  1    1    2    0    0 +4.1148906663e+02 +3.5391215589e+02 +5.9247484797e+02 8.0349456222e+02 0.0000000000e+00 0.0000e+00 1.0000e+00
       13  1    1    2    0    0 -4.1148906663e+02 -3.5391215589e+02 +1.1404053061e+03 1.2629732096e+03 0.0000000000e+00 0.0000e+00 -1.0000e+00
<mgrwt>
<rscale>  0 0.11257955E+04</rscale>
<asrwt>0</asrwt>
<pdfrwt beam="1">  1        2 0.29225752E+00 0.11257955E+04</pdfrwt>
<pdfrwt beam="2">  1       -2 0.25660587E-01 0.11257955E+04</pdfrwt>
<totfact> 0.12257059E+02</totfact>
</mgrwt>
<rwgt>
<wgt id='morphing_basis_vector_1'> +1.9580659e-04 </wgt>
<wgt id='morphing_basis_vector_2'> +1.3034733e-04 </wgt>
<wgt id='morphing_basis_vector_3'> +1.9389222e-04 </wgt>
<wgt id='morphing_basis_vector_4'> +1.1731341e-04 </wgt>
<wgt id='morphing_basis_vector_5'> +1.9241379e-04 </wgt>
</rwgt>
</event>
<event>
 4      1 +7.8865000e-07 1.18891400e+03 7.81860800e-03 8.52266900e-02
        2 -1    0    0  501    0 +0.0000000000e+00 +0.0000000000e+00 +2.4141888791e+03 2.4141888791e+03 0.0000000000e+00 0.0000e+00 -1.0000e+00
       -2 -1    0    0    0  501 -0.0000000000e+00 -0.0000000000e+00 -1.4637584018e+02 1.4637584018e+02 0.0000000000e+00 0.0000e+00 1.0000e+00
      -13  1    1    2    0    0 -1.2342439155e+02 -4.2292963254e+02 +2.7437771952e+02 5.1902426483e+02 0.0000000000e+00 0.0000e+00 1.0000e+00
       13  1    1    2    0    0 +1.2342439155e+02 +4.2292963254e+02 +1.9934353194e+03 2.0415404545e+03 0.0000000000e+00 0.0000e+00 -1.0000e+00
<mgrwt>
<rscale>  0 0.11889137E+04</rscale>
<asrwt>0</asrwt>
<pdfrwt beam="1">  1        2 0.37141364E+00 0.11889137E+04</pdfrwt>
<pdfrwt beam="2">  1       -2 0.22519362E-01 0.11889137E+04</pdfrwt>
<totfact> 0.77869640E+01</totfact>
</mgrwt>
<rwgt>
<wgt id='morphing_basis_vector_1'> +2.3776870e-04 </wgt>
<wgt id='morphing_basis_vector_2'> +1.5289221e-04 </wgt>
<wgt id='morphing_basis_vector_3'> +2.3785520e-04 </wgt>
<wgt id='morphing_basis_vector_4'> +1.5243753e-04 </wgt>
<wgt id='morphing_basis_vector_5'> +2.4293528e-04 </wgt>
</rwgt>
</event>
<event>
 4      1 +7.8865000e-07 1.15351400e+03 7.81860800e-03 8.55049000e-02
        2 -1    0    0  501    0 +0.0000000000e+00 +0.0000000000e+00 +1.3023022859e+03 1.3023022859e+03 0.0000000000e+00 0.0000e+00 1.0000e+00
       -2 -1    0    0    0  501 -0.0000000000e+00 -0.0000000000e+00 -2.5543123146e+02 2.5543123146e+02 0.0000000000e+00 0.0000e+00 -1.0000e+00
      -13  1    1    2    0    0 +4.4355984697e+02 +2.2654766594e+02 +1.3069763062e+02 5.1492820221e+02 0.0000000000e+00 0.0000e+00 -1.0000e+00
       13  1    1    2    0    0 -4.4355984697e+02 -2.2654766594e+02 +9.1617342383e+02 1.0428053152e+03 0.0000000000e+00 0.0000e+00 1.0000e+00
<mgrwt>
<rscale>  0 0.11535141E+04</rscale>
<asrwt>0</asrwt>
<pdfrwt beam="1">  1        2 0.20035419E+00 0.11535141E+04</pdfrwt>
<pdfrwt beam="2">  1       -2 0.39297113E-01 0.11535141E+04</pdfrwt>
<totfact> 0.12282596E+02</totfact>
</mgrwt>
<rwgt>
<wgt id='morphing_basis_vector_1'> +2.1272279e-04 </wgt>
<wgt id='morphing_basis_vector_2'> +1.3768582e-04 </wgt>
<wgt id='morphing_basis_vector_3'> +2.1158230e-04 </wgt>
<wgt id='morphing_basis_vector_4'> +1.3316195e-04 </wgt>
<wgt id='morphing_basis_vector_5'> +2.1361782e-04 </wgt>
</rwgt>
</event>
<event>
 4      1 +7.8865000e-07 1.25377600e+03 7.81860800e-03 8.47424600e-02
        2 -1    0    0  501    0 +0.0000000000e+00 +0.0000000000e+00 +2.1305486590e+03 2.1305486590e+03 0.0000000000e+00 0.0000e+00 -1.0000e+00
       -2 -1    0    0    0  501 -0.0000000000e+00 -0.0000000000e+00 -1.8445413311e+02 1.8445413311e+02 0.0000000000e+00 0.0000e+00 1.0000e+00
      -13  1    1    2    0    0 +3.1990850479e+02 +3.1659714467e+02 +1.6733450216e+02 4.8018333901e+02 0.0000000000e+00 0.0000e+00 1.0000e+00
       13  1    1    2    0    0 -3.1990850479e+02 -3.1659714467e+02 +1.7787600237e+03 1.8348194531e+03 0.0000000000e+00 0.0000e+00 -1.0000e+00
<mgrwt>
<rscale>  0 0.12537759E+04</rscale>
<asrwt>0</asrwt>
<pdfrwt beam="1">  1        2 0.32777670E+00 0.12537759E+04</pdfrwt>
<pdfrwt beam="2">  1       -2 0.28377560E-01 0.12537759E+04</pdfrwt>
<totfact> 0.75588201E+01</totfact>
</mgrwt>
<rwgt>
<wgt id='morphing_basis_vector_1'> +2.9072409e-04 </wgt>
<wgt id='morphing_basis_vector_2'> +1.8785205e-04 </wgt>
<wgt id='morphing_basis_vector_3'> +2.9368854e-04 </wgt>
<wgt id='morphing_basis_vector_4'> +1.9078638e-04 </wgt>
<wgt id='morphing_basis_vector_5'> +3.0405405e-04 </wgt>
</rwgt>
</event>
<event>
 4      1 +7.8865000e-07 1.07379400e+03 7.81860800e-03 8.61715700e-02
        2 -1    0    0  501    0 +0.0000000000e+00 +0.0000000000e+00 +6.3365828211e+02 6.3365828211e+02 0.0000000000e+00 0.0000e+00 -1.0000e+00
       -2 -1    0    0    0  501 -0.0000000000e+00 -0.0000000000e+00 -4.5491164850e+02 4.5491164850e+02 0.0000000000e+00 0.0000e+00 1.0000e+00
      -13  1    1    2    0    0 +4.4982343847e+02 -2.8531742581e+02 +2.1282320560e+01 5.3310420786e+02 0.0000000000e+00 0.0000e+00 1.0000e+00
       13  1    1    2    0    0 -4.4982343847e+02 +2.8531742581e+02 +1.5746431305e+02 5.5546572275e+02 0.0000000000e+00 0.0000e+00 -1.0000e+00
<mgrwt>
<rscale>  0 0.10737943E+04</rscale>
<asrwt>0</asrwt>
<pdfrwt beam="1">  1        2 0.97485889E-01 0.10737943E+04</pdfrwt>
<pdfrwt beam="2">  1       -2 0.69986408E-01 0.10737943E+04</pdfrwt>
<totfact> 0.10688321E+02</totfact>
</mgrwt>
<rwgt>
<wgt id='morphing_basis_vector_1'> +1.6558412e-04 </wgt>
<wgt id='morphing_basis_vector_2'> +1.1327309e-04 </wgt>
<wgt id='morphing_basis_vector_3'> +1.6223561e-04 </wgt>
<wgt id='morphing_basis_vector_4'> +9.3394109e-05 </wgt>
<wgt id='morphing_basis_vector_5'> +1.5700459e-04 </wgt>
</rwgt>
</event>
<event>
 4      1 +7.8865000e-07 1.24641400e+03 7.81860800e-03 8.47958500e-02
        2 -1    0    0  501    0 +0.0000000000e+00 +0.0000000000e+00 +6.2242307786e+02 6.2242307786e+02 0.0000000000e+00 0.0000e+00 1.0000e+00
       -2 -1    0    0    0  501 -0.0000000000e+00 -0.0000000000e+00 -6.2399238603e+02 6.2399238603e+02 0.0000000000e+00 0.0000e+00 -1.0000e+00
      -13  1    1    2    0    0 +3.3770396099e+02 -1.5653655938e+02 -5.0062462632e+02 6.2383705899e+02 0.0000000000e+00 0.0000e+00 -1.0000e+00
       13  1    1    2    0    0 -3.3770396099e+02 +1.5653655938e+02 +4.9905531814e+02 6.2257840491e+02 0.0000000000e+00 0.0000e+00 1.0000e+00
<mgrwt>
<rscale>  0 0.12464145E+04</rscale>
<asrwt>0</asrwt>
<pdfrwt beam="1">  1        2 0.95757397E-01 0.12464145E+04</pdfrwt>
<pdfrwt beam="2">  1       -2 0.95998828E-01 0.12464145E+04</pdfrwt>
<totfact> 0.52627319E+01</totfact>
</mgrwt>
<rwgt>
<wgt id='morphing_basis_vector_1'> +2.8406471e-04 </wgt>
<wgt id='morphing_basis_vector_2'> +1.8290140e-04 </wgt>
<wgt id='morphing_basis_vector_3'> +2.8662629e-04 </wgt>
<wgt id='morphing_basis_vector_4'> +1.8652009e-04 </wgt>
<wgt id='morphing_basis_vector_5'> +2.9663081e-04 </wgt>
</rwgt>
</event>
<event>
 4      1 +7.8865000e-07 1.11764800e+03 7.81860800e-03 8.57977200e-02
        2 -1    0    0  501    0 +0.0000000000e+00 +0.0000000000e+00 +3.6943308111e+03 3.6943308111e+03 0.0000000000e+00 0.0000e+00 -1.0000e+00
       -2 -1    0    0    0  501 -0.0000000000e+00 -0.0000000000e+00 -8.4530615042e+01 8.4530615042e+01 0.0000000000e+00 0.0000e+00 1.0000e+00
      -13  1    1    2    0    0 +6.2928287073e+01 +5.2098589257e+02 +1.1554343986e+03 1.2690212446e+03 0.0000000000e+00 0.0000e+00 1.0000e+00
       13  1    1    2    0    0 -6.2928287073e+01 -5.2098589257e+02 +2.4543657974e+03 2.5098401816e+03 0.0000000000e+00 0.0000e+00 -1.0000e+00
<mgrwt>
<rscale>  0 0.11176476E+04</rscale>
<asrwt>0</asrwt>
<pdfrwt beam="1">  1        2 0.56835846E+00 0.11176476E+04</pdfrwt>
<pdfrwt beam="2">  1       -2 0.13004713E-01 0.11176476E+04</pdfrwt>
<totfact> 0.27910441E+01</totfact>
</mgrwt>
<rwgt>
<wgt id='morphing_basis_vector_1'> +1.8984176e-04 </wgt>
<wgt id='morphing_basis_vector_2'> +1.2463248e-04 </wgt>
<wgt id='morphing_basis_vector_3'> +1.8763105e-04 </wgt>
<wgt id='morphing_basis_vector_4'> +1.1490229e-04 </wgt>
<wgt id='morphing_basis_vector_5'> +1.8661631e-04 </wgt>
</rwgt>
</event>
<event>
 4      1 +7.8865000e-07 1.17532300e+03 7.81860800e-03 8.53322800e-02
        2 -1    0    0  501    0 +0.0000000000e+00 +0.0000000000e+00 +7.3023926479e+02 7.3023926479e+02 0.0000000000e+00 0.0000e+00 -1.0000e+00
       -2 -1    0    0    0  501 -0.0000000000e+00 -0.0000000000e+00 -4.7292206323e+02 4.7292206323e+02 0.0000000000e+00 0.0000e+00 1.0000e+00
      -13  1    1    2    0    0 +1.9261217705e+02 +5.2992009745e+02 -4.0888849511e+01 5.6531996112e+02 0.0000000000e+00 0.0000e+00 1.0000e+00
       13  1    1    2    0    0 -1.9261217705e+02 -5.2992009745e+02 +2.9820605107e+02 6.3784136689e+02 0.0000000000e+00 0.0000e+00 -1.0000e+00
<mgrwt>
<rscale>  0 0.11753234E+04</rscale>
<asrwt>0</asrwt>
<pdfrwt beam="1">  1        2 0.11234450E+00 0.11753234E+04</pdfrwt>
<pdfrwt beam="2">  1       -2 0.72757241E-01 0.11753234E+04</pdfrwt>
<totfact> 0.82110674E+01</totfact>
</mgrwt>
<rwgt>
<wgt id='morphing_basis_vector_1'> +2.3007234e-04 </wgt>
<wgt id='morphing_basis_vector_2'> +1.5344049e-04 </wgt>
<wgt id='morphing_basis_vector_3'> +2.2991168e-04 </wgt>
<wgt id='morphing_basis_vector_4'> +1.4111962e-04 </wgt>
<wgt id='morphing_basis_vector_5'> +2.3110356e-04 </wgt>
</rwgt>
</event>
<event>
 4      1 +7.8865000e-07 1.21236200e+03 7.81860800e-03 8.50479700e-02
        2 -1    0    0  501    0 +0.0000000000e+00 +0.0000000000e+00 +2.1413713336e+03 2.1413713336e+03 0.0000000000e+00 0.0000e+00 1.0000e+00
       -2 -1    0    0    0  501 -0.0000000000e+00 -0.0000000000e+00 -1.7159813113e+02 1.7159813113e+02 0.0000000000e+00 0.0000e+00 -1.0000e+00
      -13  1    1    2    0    0 +1.9858569081e+02 -5.2219719719e+02 +5.3612617326e+02 7.7431096014e+02 0.0000000000e+00 0.0000e+00 -1.0000e+00
       13  1    1    2    0    0 -1.9858569081e+02 +5.2219719719e+02 +1.4336470292e+03 1.5386585046e+03 0.0000000000e+00 0.0000e+00 1.0000e+00
<mgrwt>
<rscale>  0 0.12123619E+04</rscale>
<asrwt>0</asrwt>
<pdfrwt beam="1">  1        2 0.32944172E+00 0.12123619E+04</pdfrwt>
<pdfrwt beam="2">  1       -2 0.26399714E-01 0.12123619E+04</pdfrwt>
<totfact> 0.84845729E+01</totfact>
</mgrwt>
<rwgt>
<wgt id='morphing_basis_vector_1'> +2.5755706e-04 </wgt>
<wgt id='morphing_basis_vector_2'> +1.6964207e-04 </wgt>
<wgt id='morphing_basis_vector_3'> +2.5882364e-04 </wgt>
<wgt id='morphing_basis_vector_4'> +1.6285120e-04 </wgt>
<wgt id='morphing_basis_vector_5'> +2.6368527e-04 </wgt>
</rwgt>
</event>
<event>
 4      1 +7.8865000e-07 1.14097600e+03 7.81860800e-03 8.56059700e-02
        2 -1    0    0  501    0 +0.0000000000e+00 +0.0000000000e+00 +1.2813246435e+03 1.2813246435e+03 0.0000000000e+00 0.0000e+00 1.0000e+00
       -2 -1    0    0    0  501 -0.0000000000e+00 -0.0000000000e+00 -2.5400028428e+02 2.5400028428e+02 0.0000000000e+00 0.0000e+00 -1.0000e+00
      -13  1    1    2    0    0 -2.7909955336e+02 +2.6348980578e+02 -5.4269736509e+01 3.8764499576e+02 0.0000000000e+00 0.0000e+00 -1.0000e+00
       13  1    1    2    0    0 +2.7909955336e+02 -2.6348980578e+02 +1.0815940957e+03 1.1476799320e+03 0.0000000000e+00 0.0000e+00 1.0000e+00
<mgrwt>
<rscale>  0 0.11409765E+04</rscale>
<asrwt>0</asrwt>
<pdfrwt beam="1">  1        2 0.19712686E+00 0.11409765E+04</pdfrwt>
<pdfrwt beam="2">  1       -2 0.39076968E-01 0.11409765E+04</pdfrwt>
<totfact> 0.12771218E+02</totfact>
</mgrwt>
<rwgt>
<wgt id='morphing_basis_vector_1'> +2.0345947e-04 </wgt>
<wgt id='morphing_basis_vector_2'> +1.2988923e-04 </wgt>
<wgt id='morphing_basis_vector_3'> +2.0184730e-04 </wgt>
<wgt id='morphing_basis_vector_4'> +1.2828800e-04 </wgt>
<wgt id='morphing_basis_vector_5'> +2.0398714e-04 </wgt>
</rwgt>
</event>
<event>
 4      1 +7.8865000e-07 1.24268300e+03 7.81860800e-03 8.48230600e-02
        2 -1    0    0  501    0 +0.0000000000e+00 +0.0000000000e+00 +4.6453791083e+02 4.6453791083e+02 0.0000000000e+00 0.0000e+00 1.0000e+00
       -2 -1    0    0    0  501 -0.0000000000e+00 -0.0000000000e+00 -8.3107425957e+02 8.3107425957e+02 0.0000000000e+00 0.0000e+00 -1.0000e+00
      -13  1    1    2    0    0 +4.4299305230e+02 -8.5141418902e+01 +2.6221726074e+02 5.2177561981e+02 0.0000000000e+00 0.0000e+00 1.0000e+00
       13  1    1    2    0    0 -4.4299305230e+02 +8.5141418902e+01 -6.2875360947e+02 7.7383655059e+02 0.0000000000e+00 0.0000e+00 -1.0000e+00
<mgrwt>
<rscale>  0 0.12426834E+04</rscale>
<asrwt>0</asrwt>
<pdfrwt beam="1">  1        2 0.71467372E-01 0.12426834E+04</pdfrwt>
<pdfrwt beam="2">  1       -2 0.12785758E+00 0.12426834E+04</pdfrwt>
<totfact> 0.35908204E+01</totfact>
</mgrwt>
<rwgt>
<wgt id='morphing_basis_vector_1'> +3.5932341e-04 </wgt>
<wgt id='morphing_basis_vector_2'> +4.1618407e-04 </wgt>
<wgt id='morphing_basis_vector_3'> +3.7457341e-04 </wgt>
<wgt id='morphing_basis_vector_4'> +4.7393361e-05 </wgt>
<wgt id='morphing_basis_vector_5'> +2.8346209e-04 </wgt>
</rwgt>
</event>
<event>
 4      1 +7.8865000e-07 1.15615700e+03 7.81860800e-03 8.54837700e-02
        2 -1    0    0  501    0 +0.0000000000e+00 +0.0000000000e+00 +3.7658068124e+02 3.7658068124e+02 0.0000000000e+00 0.0000e+00 -1.0000e+00
       -2 -1    0    0    0  501 -0.0000000000e+00 -0.0000000000e+00 -8.8739233389e+02 8.8739233389e+02 0.0000000000e+00 0.0000e+00 1.0000e+00
      -13  1    1    2    0    0 -5.0586360871e+02 -2.7976190903e+02 -2.5887908251e+02 6.3339016074e+02 0.0000000000e+00 0.0000e+00 1.0000e+00
       13  1    1    2    0    0 +5.0586360871e+02 +2.7976190903e+02 -2.5193257013e+02 6.3058285439e+02 0.0000000000e+00 0.0000e+00 -1.0000e+00
<mgrwt>
<rscale>  0 0.11561571E+04</rscale>
<asrwt>0</asrwt>
<pdfrwt beam="1">  1        2 0.57935490E-01 0.11561571E+04</pdfrwt>
<pdfrwt beam="2">  1       -2 0.13652190E+00 0.11561571E+04</pdfrwt>
<totfact> 0.38388245E+01</totfact>
</mgrwt>
<rwgt>
<wgt id='morphing_basis_vector_1'> +2.2119323e-04 </wgt>
<wgt id='morphing_basis_vector_2'> +1.5885670e-04 </wgt>
<wgt id='morphing_basis_vector_3'> +2.2077241e-04 </wgt>
<wgt id='morphing_basis_vector_4'> +1.2329240e-04 </wgt>
<wgt id='morphing_basis_vector_5'> +2.1496503e-04 </wgt>
</rwgt>
</event>
<event>
 4      1 +7.8865000e-07 1.18788100e+03 7.81860800e-03 8.52346700e-02
        2 -1    0    0  501    0 +0.0000000000e+00 +0.0000000000e+00 +2.8324706299e+03 2.8324706299e+03 0.0000000000e+00 0.0000e+00 -1.0000e+00
       -2 -1    0    0    0  501 -0.0000000000e+00 -0.0000000000e+00 -1.2454330486e+02 1.2454330486e+02 0.0000000000e+00 0.0000e+00 1.0000e+00
      -13  1    1    2    0    0 +1.2499424845e+02 +5.8014336147e+02 +1.2942526387e+03 1.4238257529e+03 0.0000000000e+00 0.0000e+00 1.0000e+00
       13  1    1    2    0    0 -1.2499424845e+02 -5.8014336147e+02 +1.4136746864e+03 1.5331881818e+03 0.0000000000e+00 0.0000e+00 -1.0000e+00
<mgrwt>
<rscale>  0 0.11878809E+04</rscale>
<asrwt>0</asrwt>
<pdfrwt beam="1">  1        2 0.43576466E+00 0.11878809E+04</pdfrwt>
<pdfrwt beam="2">  1       -2 0.19160511E-01 0.11878809E+04</pdfrwt>
<totfact> 0.57175039E+01</totfact>
</mgrwt>
<rwgt>
<wgt id='morphing_basis_vector_1'> +2.4399218e-04 </wgt>
<wgt id='morphing_basis_vector_2'> +1.7342118e-04 </wgt>
<wgt id='morphing_basis_vector_3'> +2.4489121e-04 </wgt>
<wgt id='morphing_basis_vector_4'> +1.3992187e-04 </wgt>
<wgt id='morphing_basis_vector_5'> +2.4123587e-04 </wgt>
</rwgt>
</event>
<event>
 4      1 +7.8865000e-07 1.27120600e+03 7.81860800e-03 8.46175500e-02
        2 -1    0    0  501    0 +0.0000000000e+00 +0.0000000000e+00 +1.3170919972e+03 1.3170919972e+03 0.0000000000e+00 0.0000e+00 1.0000e+00
       -2 -1    0    0    0  501 -0.0000000000e+00 -0.0000000000e+00 -3.0672973977e+02 3.0672973977e+02 0.0000000000e+00 0.0000e+00 -1.0000e+00
      -13  1    1    2    0    0 -3.1386182330e+02 +2.2241576783e+02 -1.4114779726e+02 4.0975690181e+02 0.0000000000e+00 0.0000e+00 -1.0000e+00
       13  1    1    2    0    0 +3.1386182330e+02 -2.2241576783e+02 +1.1515100547e+03 1.2140648352e+03 0.0000000000e+00 0.0000e+00 1.0000e+00
<mgrwt>
<rscale>  0 0.12712062E+04</rscale>
<asrwt>0</asrwt>
<pdfrwt beam="1">  1        2 0.20262953E+00 0.12712062E+04</pdfrwt>
<pdfrwt beam="2">  1       -2 0.47189192E-01 0.12712062E+04</pdfrwt>
<totfact> 0.84378540E+01</totfact>
</mgrwt>
<rwgt>
<wgt id='morphing_basis_vector_1'> +3.0616303e-04 </wgt>
<wgt id='morphing_basis_vector_2'> +1.9755958e-04 </wgt>
<wgt id='morphing_basis_vector_3'> +3.0998901e-04 </wgt>
<wgt id='morphing_basis_vector_4'> +2.0258235e-04 </wgt>
<wgt id='morphing_basis_vector_5'> +3.2227398e-04 </wgt>
</rwgt>
</event>
<event>
 4      1 +7.8865000e-07 1.11970900e+03 7.81860800e-03 8.57805800e-02
        2 -1    0    0  501    0 +0.0000000000e+00 +0.0000000000e+00 +1.3346301963e+03 1.3346301963e+03 0.0000000000e+00 0.0000e+00 1.0000e+00
       -2 -1    0    0    0  501 -0.0000000000e+00 -0.0000000000e+00 -2.3484955708e+02 2.3484955708e+02 0.0000000000e+00 0.0000e+00 -1.0000e+00
      -13  1    1    2    0    0 -2.9908506337e+02 +7.8540197449e+01 -1.0428798221e+02 3.2633789387e+02 0.0000000000e+00 0.0000e+00 -1.0000e+00
       13  1    1    2    0    0 +2.9908506337e+02 -7.8540197449e+01 +1.2040686214e+03 1.2431418595e+03 0.0000000000e+00 0.0000e+00 1.0000e+00
<mgrwt>
<rscale>  0 0.11197094E+04</rscale>
<asrwt>0</asrwt>
<pdfrwt beam="1">  1        2 0.20532772E+00 0.11197094E+04</pdfrwt>
<pdfrwt beam="2">  1       -2 0.36130702E-01 0.11197094E+04</pdfrwt>
<totfact> 0.13779277E+02</totfact>
</mgrwt>
<rwgt>
<wgt id='morphing_basis_vector_1'> +1.8946591e-04 </wgt>
<wgt id='morphing_basis_vector_2'> +1.2042339e-04 </wgt>
<wgt id='morphing_basis_vector_3'> +1.8721283e-04 </wgt>
<wgt id='morphing_basis_vector_4'> +1.1861125e-04 </wgt>
<wgt id='morphing_basis_vector_5'> +1.8827305e-04 </wgt>
</rwgt>
</event>
<event>
 4      1 +7.8865000e-07 1.19881900e+03 7.81860800e-03 8.51506700e-02
        2 -1    0    0  501    0 +0.0000000000e+00 +0.0000000000e+00 +9.9021878487e+02 9.9021878487e+02 0.0000000000e+00 0.0000e+00 -1.0000e+00
       -2 -1    0    0    0  501 -0.0000000000e+00 -0.0000000000e+00 -3.6284090969e+02 3.6284090969e+02 0.0000000000e+00 0.0000e+00 1.0000e+00
      -13  1    1    2    0    0 -1.2881527302e+02 -5.6410067946e+02 +1.3706555649e+02 5.9463427240e+02 0.0000000000e+00 0.0000e+00 1.0000e+00
       13  1    1    2    0    0 +1.2881527302e+02 +5.6410067946e+02 +4.9031231869e+02 7.5842542217e+02 0.0000000000e+00 0.0000e+00 -1.0000e+00
<mgrwt>
<rscale>  0 0.11988192E+04</rscale>
<asrwt>0</asrwt>
<pdfrwt beam="1">  1        2 0.15234135E+00 0.11988192E+04</pdfrwt>
<pdfrwt beam="2">  1       -2 0.55821679E-01 0.11988192E+04</pdfrwt>
<totfact> 0.95165677E+01</totfact>
</mgrwt>
<rwgt>
<wgt id='morphing_basis_vector_1'> +2.4821230e-04 </wgt>
<wgt id='morphing_basis_vector_2'> +1.6652172e-04 </wgt>
<wgt id='morphing_basis_vector_3'> +2.4906766e-04 </wgt>
<wgt id='morphing_basis_vector_4'> +1.5295640e-04 </wgt>
<wgt id='morphing_basis_vector_5'> +2.5128977e-04 </wgt>
</rwgt>
</event>
<event>
 4      1 +7.8865000e-07 1.09485800e+03 7.81860800e-03 8.59897500e-02
        2 -1    0    0  501    0 +0.0000000000e+00 +0.0000000000e+00 +6.1988013380e+02 6.1988013380e+02 0.0000000000e+00 0.0000e+00 1.0000e+00
       -2 -1    0    0    0  501 -0.0000000000e+00 -0.0000000000e+00 -4.8344560544e+02 4.8344560544e+02 0.0000000000e+00 0.0000e+00 -1.0000e+00
      -13  1    1    2    0    0 -1.0704002336e+02 +3.7180559055e+02 -3.2205234589e+02 5.0340309620e+02 0.0000000000e+00 0.0000e+00 -1.0000e+00
       13  1    1    2    0    0 +1.0704002336e+02 -3.7180559055e+02 +4.5848687425e+02 5.9992264304e+02 0.0000000000e+00 0.0000e+00 1.0000e+00
<mgrwt>
<rscale>  0 0.10948577E+04</rscale>
<asrwt>0</asrwt>
<pdfrwt beam="1">  1        2 0.95366175E-01 0.10948577E+04</pdfrwt>
<pdfrwt beam="2">  1       -2 0.74376247E-01 0.10948577E+04</pdfrwt>
<totfact> 0.96035502E+01</totfact>
</mgrwt>
<rwgt>
<wgt id='morphing_basis_vector_1'> +1.7432607e-04 </wgt>
<wgt id='morphing_basis_vector_2'> +1.1083224e-04 </wgt>
<wgt id='morphing_basis_vector_3'> +1.7142071e-04 </wgt>
<wgt id='morphing_basis_vector_4'> +1.0756178e-04 </wgt>
<wgt id='morphing_basis_vector_5'> +1.7102936e-04 </wgt>
</rwgt>
</event>
<event>
 4      1 +7.8865000e-07 1.24774800e+03 7.81860800e-03 8.47861400e-02
        2 -1    0    0  501    0 +0.0000000000e+00 +0.0000000000e+00 +5.3861614920e+02 5.3861614920e+02 0.0000000000e+00 0.0000e+00 -1.0000e+00
       -2 -1    0    0    0  501 -0.0000000000e+00 -0.0000000000e+00 -7.2262777901e+02 7.2262777901e+02 0.0000000000e+00 0.0000e+00 1.0000e+00
      -13  1    1    2    0    0 -2.1897479987e+02 -4.5208574498e+02 -4.6599064790e+02 6.8518520688e+02 0.0000000000e+00 0.0000e+00 1.0000e+00
       13  1    1    2    0    0 +2.1897479987e+02 +4.5208574498e+02 +2.8197901809e+02 5.7605872134e+02 0.0000000000e+00 0.0000e+00 -1.0000e+00
<mgrwt>
<rscale>  0 0.12477484E+04</rscale>
<asrwt>0</asrwt>
<pdfrwt beam="1">  1        2 0.82864023E-01 0.12477484E+04</pdfrwt>
<pdfrwt beam="2">  1       -2 0.11117350E+00 0.12477484E+04</pdfrwt>
<totfact> 0.43527912E+01</totfact>
</mgrwt>
<rwgt>
<wgt id='morphing_basis_vector_1'> +2.8582369e-04 </wgt>
<wgt id='morphing_basis_vector_2'> +1.8547395e-04 </wgt>
<wgt id='morphing_basis_vector_3'> +2.8855131e-04 </wgt>
<wgt id='morphing_basis_vector_4'> +1.8630832e-04 </wgt>
<wgt id='morphing_basis_vector_5'> +2.9789811e-04 </wgt>
</rwgt>
</event>
<event>
 4      1 +7.8865000e-07 1.07392500e+03 7.81860800e-03 8.61704300e-02
        2 -1    0    0  501    0 +0.0000000000e+00 +0.0000000000e+00 +2.6283199235e+03 2.6283199235e+03 0.0000000000e+00 0.0000e+00 1.0000e+00
       -2 -1    0    0    0  501 -0.0000000000e+00 -0.0000000000e+00 -1.0970078451e+02 1.0970078451e+02 0.0000000000e+00 0.0000e+00 -1.0000e+00
      -13  1    1    2    0    0 -4.3558484228e+02 +2.6957970918e+02 +8.4882972410e+02 9.9142285376e+02 0.0000000000e+00 0.0000e+00 -1.0000e+00
       13  1    1    2    0    0 +4.3558484228e+02 -2.6957970918e+02 +1.6697894149e+03 1.7465978543e+03 0.0000000000e+00 0.0000e+00 1.0000e+00
<mgrwt>
<rscale>  0 0.10739251E+04</rscale>
<asrwt>0</asrwt>
<pdfrwt beam="1">  1        2 0.40435686E+00 0.10739251E+04</pdfrwt>
<pdfrwt beam="2">  1       -2 0.16877046E-01 0.10739251E+04</pdfrwt>
<totfact> 0.95101177E+01</totfact>
</mgrwt>
<rwgt>
<wgt id='morphing_basis_vector_1'> +1.6381495e-04 </wgt>
<wgt id='morphing_basis_vector_2'> +1.0775952e-04 </wgt>
<wgt id='morphing_basis_vector_3'> +1.6044135e-04 </wgt>
<wgt id='morphing_basis_vector_4'> +9.6426015e-05 </wgt>
<wgt id='morphing_basis_vector_5'> +1.5727533e-04 </wgt>
</rwgt>
</event>
<event>
 4      1 +7.8865000e-07 1.24987300e+03 7.81860800e-03 8.47707200e-02
        2 -1    0    0  501    0 +0.0000000000e+00 +0.0000000000e+00 +1.5519231920e+03 1.5519231920e+03 0.0000000000e+00 0.0000e+00 -1.0000e+00
       -2 -1    0    0    0  501 -0.0000000000e+00 -0.0000000000e+00 -2.5165259062e+02 2.5165259062e+02 0.0000000000e+00 0.0000e+00 1.0000e+00
      -13  1    1    2    0    0 +9.7261022358e+01 -5.9446897971e+02 +8.9026673763e+02 1.0749083396e+03 0.0000000000e+00 0.0000e+00 1.0000e+00
       13  1    1    2    0    0 -9.7261022358e+01 +5.9446897971e+02 +4.1000386376e+02 7.2866744308e+02 0.0000000000e+00 0.0000e+00 -1.0000e+00
<mgrwt>
<rscale>  0 0.12498728E+04</rscale>
<asrwt>0</asrwt>
<pdfrwt beam="1">  1        2 0.23875741E+00 0.12498728E+04</pdfrwt>
<pdfrwt beam="2">  1       -2 0.38715784E-01 0.12498728E+04</pdfrwt>
<totfact> 0.90725206E+01</totfact>
</mgrwt>
<rwgt>
<wgt id='morphing_basis_vector_1'> +3.1279363e-04 </wgt>
<wgt id='morphing_basis_vector_2'> +2.6203927e-04 </wgt>
<wgt id='morphing_basis_vector_3'> +3.1987584e-04 </wgt>
<wgt id='morphing_basis_vector_4'> +1.4375323e-04 </wgt>
<wgt id='morphing_basis_vector_5'> +2.9700241e-04 </wgt>
</rwgt>
</event>
<event>
 4      1 +7.8865000e-07 1.18777200e+03 7.81860800e-03 8.52355100e-02
        2 -1    0    0  501    0 +0.0000000000e+00 +0.0000000000e+00 +1.9805157736e+03 1.9805157736e+03 0.0000000000e+00 0.0000e+00 -1.0000e+00
       -2 -1    0    0    0  501 -0.0000000000e+00 -0.0000000000e+00 -1.7808521247e+02 1.7808521247e+02 0.0000000000e+00 0.0000e+00 1.0000e+00
      -13  1    1    2    0    0 -5.7001468076e+01 -5.1397011638e+02 +3.7047935857e+02 6.3613630852e+02 0.0000000000e+00 0.0000e+00 1.0000e+00
       13  1    1    2    0    0 +5.7001468076e+01 +5.1397011638e+02 +1.4319512026e+03 1.5224646776e+03 0.0000000000e+00 0.0000e+00 -1.0000e+00
<mgrwt>
<rscale>  0 0.11877720E+04</rscale>
<asrwt>0</asrwt>
<pdfrwt beam="1">  1        2 0.30469472E+00 0.11877720E+04</pdfrwt>
<pdfrwt beam="2">  1       -2 0.27397726E-01 0.11877720E+04</pdfrwt>
<totfact> 0.98128950E+01</totfact>
</mgrwt>
<rwgt>
<wgt id='morphing_basis_vector_1'> +2.3762700e-04 </wgt>
<wgt id='morphing_basis_vector_2'> +1.5448531e-04 </wgt>
<wgt id='morphing_basis_vector_3'> +2.3775668e-04 </wgt>
<wgt id='morphing_basis_vector_4'> +1.5059093e-04 </wgt>
<wgt id='morphing_basis_vector_5'> +2.4186545e-04 </wgt>
</rwgt>
</event>
<event>
 4      1 +7.8865000e-07 1.12145300e+03 7.81860800e-03 8.57661200e-02
        2 -1    0    0  501    0 +0.0000000000e+00 +0.0000000000e+00 +1.4060734542e+03 1.4060734542e+03 0.0000000000e+00 0.0000e+00 -1.0000e+00
       -2 -1    0    0    0  501 -0.0000000000e+00 -0.0000000000e+00 -2.2361135528e+02 2.2361135528e+02 0.0000000000e+00 0.0000e+00 1.0000e+00
      -13  1    1    2    0    0 +4.4629343702e+02 +3.1499109103e+02 +4.0731900238e+02 6.8140002132e+02 0.0000000000e+00 0.0000e+00 1.0000e+00
       13  1    1    2    0    0 -4.4629343702e+02 -3.1499109103e+02 +7.7514309650e+02 9.4828478813e+02 0.0000000000e+00 0.0000e+00 -1.0000e+00
<mgrwt>
<rscale>  0 0.11214526E+04</rscale>
<asrwt>0</asrwt>
<pdfrwt beam="1">  1        2 0.21631899E+00 0.11214526E+04</pdfrwt>
<pdfrwt beam="2">  1       -2 0.34401748E-01 0.11214526E+04</pdfrwt>
<totfact> 0.13726416E+02</totfact>
</mgrwt>
<rwgt>
<wgt id='morphing_basis_vector_1'> +1.9341844e-04 </wgt>
<wgt id='morphing_basis_vector_2'> +1.2971627e-04 </wgt>
<wgt id='morphing_basis_vector_3'> +1.9139437e-04 </wgt>
<wgt id='morphing_basis_vector_4'> +1.1468501e-04 </wgt>
<wgt id='morphing_basis_vector_5'> +1.8922027e-04 </wgt>
</rwgt>
</event>
<event>
 4      1 +7.8865000e-07 1.09771900e+03 7.81860800e-03 8.59653800e-02
        2 -1    0    0  501    0 +0.0000000000e+00 +0.0000000000e+00 +8.0722858753e+02 8.0722858753e+02 0.0000000000e+00 0.0000e+00 -1.0000e+00
       -2 -1    0    0    0  501 -0.0000000000e+00 -0.0000000000e+00 -3.7318631454e+02 3.7318631454e+02 0.0000000000e+00 0.0000e+00 1.0000e+00
      -13  1    1    2    0    0 +2.9942526373e+02 +1.5233849969e+02 -2.4970890091e+02 4.1858934798e+02 0.0000000000e+00 0.0000e+00 1.0000e+00
       13  1    1    2    0    0 -2.9942526373e+02 -1.5233849969e+02 +6.8375117391e+02 7.6182555409e+02 0.0000000000e+00 0.0000e+00 -1.0000e+00
<mgrwt>
<rscale>  0 0.10977188E+04</rscale>
<asrwt>0</asrwt>
<pdfrwt beam="1">  1        2 0.12418901E+00 0.10977188E+04</pdfrwt>
<pdfrwt beam="2">  1       -2 0.57413280E-01 0.10977188E+04</pdfrwt>
<totfact> 0.11940935E+02</totfact>
</mgrwt>
<rwgt>
<wgt id='morphing_basis_vector_1'> +1.7592792e-04 </wgt>
<wgt id='morphing_basis_vector_2'> +1.1162764e-04 </wgt>
<wgt id='morphing_basis_vector_3'> +1.7309010e-04 </wgt>
<wgt id='morphing_basis_vector_4'> +1.0894458e-04 </wgt>
<wgt id='morphing_basis_vector_5'> +1.7296274e-04 </wgt>
</rwgt>
</event>
<event>
 4      1 +7.8865000e-07 1.08802200e+03 7.81860800e-03 8.60482900e-02
        2 -1    0    0  501    0 +0.0000000000e+00 +0.0000000000e+00 +2.0227775693e+03 2.0227775693e+03 0.0000000000e+00 0.0000e+00 -1.0000e+00
       -2 -1    0    0    0  501 -0.0000000000e+00 -0.0000000000e+00 -1.4630774810e+02 1.4630774810e+02 0.0000000000e+00 0.0000e+00 1.0000e+00
      -13  1    1    2    0    0 +4.1619934694e+02 -2.2868300340e+02 +4.0915846197e+02 6.2684005890e+02 0.0000000000e+00 0.0000e+00 1.0000e+00
       13  1    1    2    0    0 -4.1619934694e+02 +2.2868300340e+02 +1.4673113593e+03 1.5422452585e+03 0.0000000000e+00 0.0000e+00 -1.0000e+00
<mgrwt>
<rscale>  0 0.10880221E+04</rscale>
<asrwt>0</asrwt>
<pdfrwt beam="1">  1        2 0.31119653E+00 0.10880221E+04</pdfrwt>
<pdfrwt beam="2">  1       -2 0.22508886E-01 0.10880221E+04</pdfrwt>
<totfact> 0.13136544E+02</totfact>
</mgrwt>
<rwgt>
<wgt id='morphing_basis_vector_1'> +1.7088322e-04 </wgt>
<wgt id='morphing_basis_vector_2'> +1.0996982e-04 </wgt>
<wgt id='morphing_basis_vector_3'> +1.6782838e-04 </wgt>
<wgt id='morphing_basis_vector_4'> +1.0375824e-04 </wgt>
<wgt id='morphing_basis_vector_5'> +1.6643954e-04 </wgt>
</rwgt>
</event>
<event>
 4      1 +7.8865000e-07 1.21145600e+03 7.81860800e-03 8.50547900e-02
        2 -1    0    0  501    0 +0.0000000000e+00 +0.0000000000e+00 +3.7076889238e+03 3.7076889238e+03 0.0000000000e+00 0.0000e+00 1.0000e+00
       -2 -1    0    0    0  501 -0.0000000000e+00 -0.0000000000e+00 -9.8958322154e+01 9.8958322154e+01 0.0000000000e+00 0.0000e+00 -1.0000e+00
      -13  1    1    2    0    0 +4.6949372755e+01 +5.0347285245e+02 +7.5646146202e+02 9.0990279716e+02 0.0000000000e+00 0.0000e+00 -1.0000e+00
       13  1    1    2    0    0 -4.6949372755e+01 -5.0347285245e+02 +2.8522691396e+03 2.8967444488e+03 0.0000000000e+00 0.0000e+00 1.0000e+00
<mgrwt>
<rscale>  0 0.12114564E+04</rscale>
<asrwt>0</asrwt>
<pdfrwt beam="1">  1        2 0.57041358E+00 0.12114564E+04</pdfrwt>
<pdfrwt beam="2">  1       -2 0.15224360E-01 0.12114564E+04</pdfrwt>
<totfact> 0.20892456E+01</totfact>
</mgrwt>
<rwgt>
<wgt id='morphing_basis_vector_1'> +2.5573690e-04 </wgt>
<wgt id='morphing_basis_vector_2'> +1.6586902e-04 </wgt>
<wgt id='morphing_basis_vector_3'> +2.5680942e-04 </wgt>
<wgt id='morphing_basis_vector_4'> +1.6422187e-04 </wgt>
<wgt id='morphing_basis_vector_5'> +2.6298217e-04 </wgt>
</rwgt>
</event>
<event>
 4      1 +7.8865000e-07 1.21247200e+03 7.81860800e-03 8.50471400e-02
        2 -1    0    0  501    0 +0.0000000000e+00 +0.0000000000e+00 +4.1671124471e+02 4.1671124471e+02 0.0000000000e+00 0.0000e+00 -1.0000e+00
       -2 -1    0    0    0  501 -0.0000000000e+00 -0.0000000000e+00 -8.8195839647e+02 8.8195839647e+02 0.0000000000e+00 0.0000e+00 1.0000e+00
      -13  1    1    2    0    0 +2.7674072622e+02 -5.3279402089e+02 -3.2266598927e+02 6.8159242871e+02 0.0000000000e+00 0.0000e+00 1.0000e+00
       13  1    1    2    0    0 -2.7674072622e+02 +5.3279402089e+02 -1.4258116250e+02 6.1707721247e+02 0.0000000000e+00 0.0000e+00 -1.0000e+00
<mgrwt>
<rscale>  0 0.12124718E+04</rscale>
<asrwt>0</asrwt>
<pdfrwt beam="1">  1        2 0.64109423E-01 0.12124718E+04</pdfrwt>
<pdfrwt beam="2">  1       -2 0.13568591E+00 0.12124718E+04</pdfrwt>
<totfact> 0.34671539E+01</totfact>
</mgrwt>
<rwgt>
<wgt id='morphing_basis_vector_1'> +2.6120974e-04 </wgt>
<wgt id='morphing_basis_vector_2'> +1.8040415e-04 </wgt>
<wgt id='morphing_basis_vector_3'> +2.6298499e-04 </wgt>
<wgt id='morphing_basis_vector_4'> +1.5676890e-04 </wgt>
<wgt id='morphing_basis_vector_5'> +2.6336737e-04 </wgt>
</rwgt>
</event>
<event>
 4      1 +7.8865000e-07 1.07708600e+03 7.81860800e-03 8.61428700e-02
        2 -1    0    0  501    0 +0.0000000000e+00 +0.0000000000e+00 +9.7199657181e+02 9.7199657181e+02 0.0000000000e+00 0.0000e+00 1.0000e+00
       -2 -1    0    0    0  501 -0.0000000000e+00 -0.0000000000e+00 -2.9838419569e+02 2.9838419569e+02 0.0000000000e+00 0.0000e+00 -1.0000e+00
      -13  1    1    2    0    0 -2.5044017787e+02 +1.2520356125e+02 -2.0578722094e+02 3.4748322944e+02 0.0000000000e+00 0.0000e+00 -1.0000e+00
       13  1    1    2    0    0 +2.5044017787e+02 -1.2520356125e+02 +8.7939959706e+02 9.2289753805e+02 0.0000000000e+00 0.0000e+00 1.0000e+00
<mgrwt>
<rscale>  0 0.10770857E+04</rscale>
<asrwt>0</asrwt>
<pdfrwt beam="1">  1        2 0.14953793E+00 0.10770857E+04</pdfrwt>
<pdfrwt beam="2">  1       -2 0.45905261E-01 0.10770857E+04</pdfrwt>
<totfact> 0.14480689E+02</totfact>
</mgrwt>
<rwgt>
<wgt id='morphing_basis_vector_1'> +1.6382966e-04 </wgt>
<wgt id='morphing_basis_vector_2'> +1.0357848e-04 </wgt>
<wgt id='morphing_basis_vector_3'> +1.6049897e-04 </wgt>
<wgt id='morphing_basis_vector_4'> +1.0054883e-04 </wgt>
<wgt id='morphing_basis_vector_5'> +1.5945596e-04 </wgt>
</rwgt>
</event>
<event>
 4      1 +7.8865000e-07 1.08206000e+03 7.81860800e-03 8.60997100e-02
        2 -1    0    0  501    0 +0.0000000000e+00 +0.0000000000e+00 +1.7589854193e+03 1.7589854193e+03 0.0000000000e+00 0.0000e+00 -1.0000e+00
       -2 -1    0    0    0  501 -0.0000000000e+00 -0.0000000000e+00 -1.6641024478e+02 1.6641024478e+02 0.0000000000e+00 0.0000e+00 1.0000e+00
      -13  1    1    2    0    0 +1.0346654702e+02 -5.2827554785e+02 +6.9992442142e+02 8.8299183264e+02 0.0000000000e+00 0.0000e+00 1.0000e+00
       13  1    1    2    0    0 -1.0346654702e+02 +5.2827554785e+02 +8.9265075311e+02 1.0424038315e+03 0.0000000000e+00 0.0000e+00 -1.0000e+00
<mgrwt>
<rscale>  0 0.10820595E+04</rscale>
<asrwt>0</asrwt>
<pdfrwt beam="1">  1        2 0.27061313E+00 0.10820595E+04</pdfrwt>
<pdfrwt beam="2">  1       -2 0.25601577E-01 0.10820595E+04</pdfrwt>
<totfact> 0.14774579E+02</totfact>
</mgrwt>
<rwgt>
<wgt id='morphing_basis_vector_1'> +1.7077024e-04 </wgt>
<wgt id='morphing_basis_vector_2'> +1.1780012e-04 </wgt>
<wgt id='morphing_basis_vector_3'> +1.6765114e-04 </wgt>
<wgt id='morphing_basis_vector_4'> +9.5891604e-05 </wgt>
<wgt id='morphing_basis_vector_5'> +1.6221655e-04 </wgt>
</rwgt>
</event>
<event>
 4      1 +7.8865000e-07 1.09817800e+03 7.81860800e-03 8.59614700e-02
        2 -1    0    0  501    0 +0.0000000000e+00 +0.0000000000e+00 +1.0932452201e+03 1.0932452201e+03 0.0000000000e+00 0.0000e+00 1.0000e+00
       -2 -1    0    0    0  501 -0.0000000000e+00 -0.0000000000e+00 -2.7578350748e+02 2.7578350748e+02 0.0000000000e+00 0.0000e+00 -1.0000e+00
      -13  1    1    2    0    0 +2.6314686446e+02 +4.0556784383e+02 +8.4204324330e+01 4.9073609655e+02 0.0000000000e+00 0.0000e+00 -1.0000e+00
       13  1    1    2    0    0 -2.6314686446e+02 -4.0556784383e+02 +7.3325738833e+02 8.7829263105e+02 0.0000000000e+00 0.0000e+00 1.0000e+00
<mgrwt>
<rscale>  0 0.10981785E+04</rscale>
<asrwt>0</asrwt>
<pdfrwt beam="1">  1        2 0.16819157E+00 0.10981785E+04</pdfrwt>
<pdfrwt beam="2">  1       -2 0.42428232E-01 0.10981785E+04</pdfrwt>
<totfact> 0.14151856E+02</totfact>
</mgrwt>
<rwgt>
<wgt id='morphing_basis_vector_1'> +1.7698888e-04 </wgt>
<wgt id='morphing_basis_vector_2'> +1.1417561e-04 </wgt>
<wgt id='morphing_basis_vector_3'> +1.7419445e-04 </wgt>
<wgt id='morphing_basis_vector_4'> +1.0785282e-04 </wgt>
<wgt id='morphing_basis_vector_5'> +1.7319034e-04 </wgt>
</rwgt>
</event>
<event>
 4      1 +7.8865000e-07 1.12162600e+03 7.81860800e-03 8.57646800e-02
        2 -1    0    0  501    0 +0.0000000000e+00 +0.0000000000e+00 +3.5177608959e+03 3.5177608959e+03 0.0000000000e+00 0.0000e+00 1.0000e+00
       -2 -1    0    0    0  501 -0.0000000000e+00 -0.0000000000e+00 -8.9406692692e+01 8.9406692692e+01 0.0000000000e+00 0.0000e+00 -1.0000e+00
      -13  1    1    2    0    0 -3.9954751604e+02 +2.7258708112e+02 +8.0131893597e+02 9.3597754862e+02 0.0000000000e+00 0.0000e+00 -1.0000e+00
       13  1    1    2    0    0 +3.9954751604e+02 -2.7258708112e+02 +2.6270352672e+03 2.6711900399e+03 0.0000000000e+00 0.0000e+00 1.0000e+00
<mgrwt>
<rscale>  0 0.11216263E+04</rscale>
<asrwt>0</asrwt>
<pdfrwt beam="1">  1        2 0.54119388E+00 0.11216263E+04</pdfrwt>
<pdfrwt beam="2">  1       -2 0.13754879E-01 0.11216263E+04</pdfrwt>
<totfact> 0.34474919E+01</totfact>
</mgrwt>
<rwgt>
<wgt id='morphing_basis_vector_1'> +1.9143146e-04 </wgt>
<wgt id='morphing_basis_vector_2'> +1.2346983e-04 </wgt>
<wgt id='morphing_basis_vector_3'> +1.8927987e-04 </wgt>
<wgt id='morphing_basis_vector_4'> +1.1824133e-04 </wgt>
<wgt id='morphing_basis_vector_5'> +1.8957218e-04 </wgt>
</rwgt>
</event>
<event>
 4      1 +7.8865000e-07 1.14634300e+03 7.81860800e-03 8.55625500e-02
        2 -1    0    0  501    0 +0.0000000000e+00 +0.0000000000e+00 +1.0777604436e+03 1.0777604436e+03 0.0000000000e+00 0.0000e+00 1.0000e+00
       -2 -1    0    0    0  501 -0.0000000000e+00 -0.0000000000e+00 -3.0482231202e+02 3.0482231202e+02 0.0000000000e+00 0.0000e+00 -1.0000e+00
      -13  1    1    2    0    0 +3.9620492681e+01 -1.7388528567e+02 -2.7050727167e+02 3.2400626543e+02 0.0000000000e+00 0.0000e+00 -1.0000e+00
       13  1    1    2    0    0 -3.9620492681e+01 +1.7388528567e+02 +1.0434454033e+03 1.0585764902e+03 0.0000000000e+00 0.0000e+00 1.0000e+00
<mgrwt>
<rscale>  0 0.11463428E+04</rscale>
<asrwt>0</asrwt>
<pdfrwt beam="1">  1        2 0.16580930E+00 0.11463428E+04</pdfrwt>
<pdfrwt beam="2">  1       -2 0.46895741E-01 0.11463428E+04</pdfrwt>
<totfact> 0.11901196E+02</totfact>
</mgrwt>
<rwgt>
<wgt id='morphing_basis_vector_1'> +2.0690468e-04 </wgt>
<wgt id='morphing_basis_vector_2'> +1.3173951e-04 </wgt>
<wgt id='morphing_basis_vector_3'> +2.0544760e-04 </wgt>
<wgt id='morphing_basis_vector_4'> +1.3116675e-04 </wgt>
<wgt id='morphing_basis_vector_5'> +2.0812279e-04 </wgt>
</rwgt>
</event>
<event>
 4      1 +7.8865000e-07 1.12399000e+03 7.81860800e-03 8.57451100e-02
        2 -1    0    0  501    0 +0.0000000000e+00 +0.0000000000e+00 +6.7357545293e+02 6.7357545293e+02 0.0000000000e+00 0.0000e+00 -1.0000e+00
       -2 -1    0    0    0  501 -0.0000000000e+00 -0.0000000000e+00 -4.6889864085e+02 4.6889864085e+02 0.0000000000e+00 0.0000e+00 1.0000e+00
      -13  1    1    2    0    0 -1.4870911586e+02 -8.8945607176e+01 -4.4106788233e+02 4.7388458405e+02 0.0000000000e+00 0.0000e+00 1.0000e+00
       13  1    1    2    0    0 +1.4870911586e+02 +8.8945607176e+01 +6.4574469441e+02 6.6858950974e+02 0.0000000000e+00 0.0000e+00 -1.0000e+00
<mgrwt>
<rscale>  0 0.11239904E+04</rscale>
<asrwt>0</asrwt>
<pdfrwt beam="1">  1        2 0.10362699E+00 0.11239904E+04</pdfrwt>
<pdfrwt beam="2">  1       -2 0.72138252E-01 0.11239904E+04</pdfrwt>
<totfact> 0.92713100E+01</totfact>
</mgrwt>
<rwgt>
<wgt id='morphing_basis_vector_1'> +1.9214132e-04 </wgt>
<wgt id='morphing_basis_vector_2'> +1.2204361e-04 </wgt>
<wgt id='morphing_basis_vector_3'> +1.9000635e-04 </wgt>
<wgt id='morphing_basis_vector_4'> +1.2064779e-04 </wgt>
<wgt id='morphing_basis_vector_5'> +1.9137087e-04 </wgt>
</rwgt>
</event>
<event>
 4      1 +7.8865000e-07 1.18611800e+03 7.81860800e-03 8.52482900e-02
        2 -1    0    0  501    0 +0.0000000000e+00 +0.0000000000e+00 +1.7961680676e+03 1.7961680676e+03 0.0000000000e+00 0.0000e+00 -1.0000e+00
       -2 -1    0    0    0  501 -0.0000000000e+00 -0.0000000000e+00 -1.9581634433e+02 1.9581634433e+02 0.0000000000e+00 0.0000e+00 1.0000e+00
      -13  1    1    2    0    0 +4.9939158429e+02 -7.3625362742e+01 +2.7737745935e+02 5.7597821439e+02 0.0000000000e+00 0.0000e+00 1.0000e+00
       13  1    1    2    0    0 -4.9939158429e+02 +7.3625362742e+01 +1.3229742639e+03 1.4160061975e+03 0.0000000000e+00 0.0000e+00 -1.0000e+00
<mgrwt>
<rscale>  0 0.11861181E+04</rscale>
<asrwt>0</asrwt>
<pdfrwt beam="1">  1        2 0.27633354E+00 0.11861181E+04</pdfrwt>
<pdfrwt beam="2">  1       -2 0.30125593E-01 0.11861181E+04</pdfrwt>
<totfact> 0.10515077E+02</totfact>
</mgrwt>
<rwgt>
<wgt id='morphing_basis_vector_1'> +2.3620425e-04 </wgt>
<wgt id='morphing_basis_vector_2'> +1.5312458e-04 </wgt>
<wgt id='morphing_basis_vector_3'> +2.3624746e-04 </wgt>
<wgt id='morphing_basis_vector_4'> +1.5000571e-04 </wgt>
<wgt id='morphing_basis_vector_5'> +2.4046170e-04 </wgt>
</rwgt>
</event>
<event>
 4      1 +7.8865000e-07 1.08863800e+03 7.81860800e-03 8.60430000e-02
        2 -1    0    0  501    0 +0.0000000000e+00 +0.0000000000e+00 +1.0695804005e+03 1.0695804005e+03 0.0000000000e+00 0.0000e+00 1.0000e+00
       -2 -1    0    0    0  501 -0.0000000000e+00 -0.0000000000e+00 -2.7700857313e+02 2.7700857313e+02 0.0000000000e+00 0.0000e+00 -1.0000e+00
      -13  1    1    2    0    0 +1.9728511243e+02 +2.4653882940e+02 -1.5214451745e+02 3.5050073349e+02 0.0000000000e+00 0.0000e+00 -1.0000e+00
       13  1    1    2    0    0 -1.9728511243e+02 -2.4653882940e+02 +9.4471634487e+02 9.9608824019e+02 0.0000000000e+00 0.0000e+00 1.0000e+00
<mgrwt>
<rscale>  0 0.10886376E+04</rscale>
<asrwt>0</asrwt>
<pdfrwt beam="1">  1        2 0.16455083E+00 0.10886376E+04</pdfrwt>
<pdfrwt beam="2">  1       -2 0.42616704E-01 0.10886376E+04</pdfrwt>
<totfact> 0.14512722E+02</totfact>
</mgrwt>
<rwgt>
<wgt id='morphing_basis_vector_1'> +1.7052191e-04 </wgt>
<wgt id='morphing_basis_vector_2'> +1.0802958e-04 </wgt>
<wgt id='morphing_basis_vector_3'> +1.6746002e-04 </wgt>
<wgt id='morphing_basis_vector_4'> +1.0518781e-04 </wgt>
<wgt id='morphing_basis_vector_5'> +1.6691870e-04 </wgt>
</rwgt>
</event>
<event>
 4      1 +7.8865000e-07 1.18097400e+03 7.81860800e-03 8.52882000e-02
        2 -1    0    0  501    0 +0.0000000000e+00 +0.0000000000e+00 +1.3583413298e+03 1.3583413298e+03 0.0000000000e+00 0.0000e+00 -1.0000e+00
       -2 -1    0    0    0  501 -0.0000000000e+00 -0.0000000000e+00 -2.5669151002e+02 2.5669151002e+02 0.0000000000e+00 0.0000e+00 1.0000e+00
      -13  1    1    2    0    0 -2.4801185141e+02 -4.9560005068e+02 +2.7208277879e+02 6.1738021282e+02 0.0000000000e+00 0.0000e+00 1.0000e+00
       13  1    1    2    0    0 +2.4801185141e+02 +4.9560005068e+02 +8.2956704103e+02 9.9765262703e+02 0.0000000000e+00 0.0000e+00 -1.0000e+00
<mgrwt>
<rscale>  0 0.11809736E+04</rscale>
<asrwt>0</asrwt>
<pdfrwt beam="1">  1        2 0.20897558E+00 0.11809736E+04</pdfrwt>
<pdfrwt beam="2">  1       -2 0.39491003E-01 0.11809736E+04</pdfrwt>
<totfact> 0.11286450E+02</totfact>
</mgrwt>
<rwgt>
<wgt id='morphing_basis_vector_1'> +2.3360590e-04 </wgt>
<wgt id='morphing_basis_vector_2'> +1.5430971e-04 </wgt>
<wgt id='morphing_basis_vector_3'> +2.3359448e-04 </wgt>
<wgt id='morphing_basis_vector_4'> +1.4515051e-04 </wgt>
<wgt id='morphing_basis_vector_5'> +2.3592870e-04 </wgt>
</rwgt>
</event>
<event>
 4      1 +7.8865000e-07 1.21452100e+03 7.81860800e-03 8.50317300e-02
        2 -1    0    0  501    0 +0.0000000000e+00 +0.0000000000e+00 +2.9676661468e+02 2.9676661468e+02 0.0000000000e+00 0.0000e+00 -1.0000e+00
       -2 -1    0    0    0  501 -0.0000000000e+00 -0.0000000000e+00 -1.2426103768e+03 1.2426103768e+03 0.0000000000e+00 0.0000e+00 1.0000e+00
      -13  1    1    2    0    0 -1.9140057133e+02 +5.4312686082e+01 -1.2001279871e+03 1.2165078018e+03 0.0000000000e+00 0.0000e+00 1.0000e+00
       13  1    1    2    0    0 +1.9140057133e+02 -5.4312686082e+01 +2.5428422494e+02 3.2286918965e+02 0.0000000000e+00 0.0000e+00 -1.0000e+00
<mgrwt>
<rscale>  0 0.12145209E+04</rscale>
<asrwt>0</asrwt>
<pdfrwt beam="1">  1        2 0.45656401E-01 0.12145209E+04</pdfrwt>
<pdfrwt beam="2">  1       -2 0.19117083E+00 0.12145209E+04</pdfrwt>
<totfact> 0.18331577E+01</totfact>
</mgrwt>
<rwgt>
<wgt id='morphing_basis_vector_1'> +2.5734682e-04 </wgt>
<wgt id='morphing_basis_vector_2'> +1.6496069e-04 </wgt>
<wgt id='morphing_basis_vector_3'> +2.5843166e-04 </wgt>
<wgt id='morphing_basis_vector_4'> +1.6744440e-04 </wgt>
<wgt id='morphing_basis_vector_5'> +2.6590556e-04 </wgt>
</rwgt>
</event>
<event>
 4      1 +7.8865000e-07 1.09119600e+03 7.81860800e-03 8.60210600e-02
        2 -1    0    0  501    0 +0.0000000000e+00 +0.0000000000e+00 +1.2782775920e+03 1.2782775920e+03 0.0000000000e+00 0.0000e+00 -1.0000e+00
       -2 -1    0    0    0  501 -0.0000000000e+00 -0.0000000000e+00 -2.3287361757e+02 2.3287361757e+02 0.0000000000e+00 0.0000e+00 1.0000e+00
      -13  1    1    2    0    0 +1.5537124202e+02 -5.1211298487e+02 +3.7563820216e+02 6.5383789355e+02 0.0000000000e+00 0.0000e+00 1.0000e+00
       13  1    1    2    0    0 -1.5537124202e+02 +5.1211298487e+02 +6.6976577224e+02 8.5731331599e+02 0.0000000000e+00 0.0000e+00 -1.0000e+00
<mgrwt>
<rscale>  0 0.10911959E+04</rscale>
<asrwt>0</asrwt>
<pdfrwt beam="1">  1        2 0.19665809E+00 0.10911959E+04</pdfrwt>
<pdfrwt beam="2">  1       -2 0.35826711E-01 0.10911959E+04</pdfrwt>
<totfact> 0.15099946E+02</totfact>
</mgrwt>
<rwgt>
<wgt id='morphing_basis_vector_1'> +1.7491957e-04 </wgt>
<wgt id='morphing_basis_vector_2'> +1.1774347e-04 </wgt>
<wgt id='morphing_basis_vector_3'> +1.7201618e-04 </wgt>
<wgt id='morphing_basis_vector_4'> +1.0152161e-04 </wgt>
<wgt id='morphing_basis_vector_5'> +1.6830388e-04 </wgt>
</rwgt>
</event>
<event>
 4      1 +7.8865000e-07 1.13592300e+03 7.81860800e-03 8.56471000e-02
        2 -1    0    0  501    0 +0.0000000000e+00 +0.0000000000e+00 +2.1953586264e+02 2.1953586264e+02 0.0000000000e+00 0.0000e+00 1.0000e+00
       -2 -1    0    0    0  501 -0.0000000000e+00 -0.0000000000e+00 -1.4693732768e+03 1.4693732768e+03 0.0000000000e+00 0.0000e+00 -1.0000e+00
      -13  1    1    2    0    0 -3.7346524601e+02 +4.2546927363e+02 -6.9272370395e+02 8.9463206001e+02 0.0000000000e+00 0.0000e+00 -1.0000e+00
       13  1    1    2    0    0 +3.7346524601e+02 -4.2546927363e+02 -5.5711371018e+02 7.9427707940e+02 0.0000000000e+00 0.0000e+00 1.0000e+00
<mgrwt>
<rscale>  0 0.11359228E+04</rscale>
<asrwt>0</asrwt>
<pdfrwt beam="1">  1        2 0.33774748E-01 0.11359228E+04</pdfrwt>
<pdfrwt beam="2">  1       -2 0.22605743E+00 0.11359228E+04</pdfrwt>
<totfact> 0.14569314E+01</totfact>
</mgrwt>
<rwgt>
<wgt id='morphing_basis_vector_1'> +2.0527245e-04 </wgt>
<wgt id='morphing_basis_vector_2'> +1.4326925e-04 </wgt>
<wgt id='morphing_basis_vector_3'> +2.0390109e-04 </wgt>
<wgt id='morphing_basis_vector_4'> +1.1724472e-04 </wgt>
<wgt id='morphing_basis_vector_5'> +1.9959778e-04 </wgt>
</rwgt>
</event>
<event>
 4      1 +7.8865000e-07 1.09385700e+03 7.81860800e-03 8.59982900e-02
        2 -1    0    0  501    0 +0.0000000000e+00 +0.0000000000e+00 +5.0011638482e+02 5.0011638482e+02 0.0000000000e+00 0.0000e+00 -1.0000e+00
       -2 -1    0    0    0  501 -0.0000000000e+00 -0.0000000000e+00 -5.9812248811e+02 5.9812248811e+02 0.0000000000e+00 0.0000e+00 1.0000e+00
      -13  1    1    2    0    0 -3.7581210672e+02 -3.9735959706e+02 -4.7786794900e+01 5.4901089853e+02 0.0000000000e+00 0.0000e+00 1.0000e+00
       13  1    1    2    0    0 +3.7581210672e+02 +3.9735959706e+02 -5.0219308385e+01 5.4922797441e+02 0.0000000000e+00 0.0000e+00 -1.0000e+00
<mgrwt>
<rscale>  0 0.10938571E+04</rscale>
<asrwt>0</asrwt>
<pdfrwt beam="1">  1        2 0.76940983E-01 0.10938571E+04</pdfrwt>
<pdfrwt beam="2">  1       -2 0.92018844E-01 0.10938571E+04</pdfrwt>
<totfact> 0.75869691E+01</totfact>
</mgrwt>
<rwgt>
<wgt id='morphing_basis_vector_1'> +1.7981262e-04 </wgt>
<wgt id='morphing_basis_vector_2'> +1.2878139e-04 </wgt>
<wgt id='morphing_basis_vector_3'> +1.7710209e-04 </wgt>
<wgt id='morphing_basis_vector_4'> +9.7199614e-05 </wgt>
<wgt id='morphing_basis_vector_5'> +1.6972385e-04 </wgt>
</rwgt>
</event>
<event>
 4      1 +7.8865000e-07 1.28471800e+03 7.81860800e-03 8.45221600e-02
        2 -1    0    0  501    0 +0.0000000000e+00 +0.0000000000e+00 +8.4499761701e+02 8.4499761701e+02 0.0000000000e+00 0.0000e+00 1.0000e+00
       -2 -1    0    0    0  501 -0.0000000000e+00 -0.0000000000e+00 -4.8831526018e+02 4.8831526018e+02 0.0000000000e+00 0.0000e+00 -1.0000e+00
      -13  1    1    2    0    0 +3.5616385295e+02 +7.8916927909e+01 -3.7037755512e+02 5.1986546817e+02 0.0000000000e+00 0.0000e+00 -1.0000e+00
       13  1    1    2    0    0 -3.5616385295e+02 -7.8916927909e+01 +7.2705991196e+02 8.1344740901e+02 0.0000000000e+00 0.0000e+00 1.0000e+00
<mgrwt>
<rscale>  0 0.12847182E+04</rscale>
<asrwt>0</asrwt>
<pdfrwt beam="1">  1        2 0.12999963E+00 0.12847182E+04</pdfrwt>
<pdfrwt beam="2">  1       -2 0.75125425E-01 0.12847182E+04</pdfrwt>
<totfact> 0.63003153E+01</totfact>
</mgrwt>
<rwgt>
<wgt id='morphing_basis_vector_1'> +3.1869624e-04 </wgt>
<wgt id='morphing_basis_vector_2'> +2.0576453e-04 </wgt>
<wgt id='morphing_basis_vector_3'> +3.2325100e-04 </wgt>
<wgt id='morphing_basis_vector_4'> +2.1184335e-04 </wgt>
<wgt id='morphing_basis_vector_5'> +3.3692568e-04 </wgt>
</rwgt>
</event>
<event>
 4      1 +7.8865000e-07 1.22412200e+03 7.81860800e-03 8.49599200e-02
        2 -1    0    0  501    0 +0.0000000000e+00 +0.0000000000e+00 +8.3811152146e+02 8.3811152146e+02 0.0000000000e+00 0.0000e+00 1.0000e+00
       -2 -1    0    0    0  501 -0.0000000000e+00 -0.0000000000e+00 -4.4697969869e+02 4.4697969869e+02 0.0000000000e+00 0.0000e+00 -1.0000e+00
      -13  1    1    2    0    0 +4.2155393210e+01 +1.6541864570e+02 +8.1261487139e+02 8.3035133210e+02 0.0000000000e+00 0.0000e+00 1.0000e+00
       13  1    1    2    0    0 -4.2155393210e+01 -1.6541864570e+02 -4.2148304861e+02 4.5473988805e+02 0.0000000000e+00 0.0000e+00 -1.0000e+00
<mgrwt>
<rscale>  0 0.12241223E+04</rscale>
<asrwt>0</asrwt>
<pdfrwt beam="1">  1        2 0.12894023E+00 0.12241223E+04</pdfrwt>
<pdfrwt beam="2">  1       -2 0.68766108E-01 0.12241223E+04</pdfrwt>
<totfact> 0.77474416E+01</totfact>
</mgrwt>
<rwgt>
<wgt id='morphing_basis_vector_1'> +3.6236167e-04 </wgt>
<wgt id='morphing_basis_vector_2'> +4.6191596e-04 </wgt>
<wgt id='morphing_basis_vector_3'> +3.7847254e-04 </wgt>
<wgt id='morphing_basis_vector_4'> +4.7554640e-06 </wgt>
<wgt id='morphing_basis_vector_5'> +2.6336462e-04 </wgt>
</rwgt>
</event>
<event>
 4      1 +7.8865000e-07 1.11401400e+03 7.81860800e-03 8.58280200e-02
        2 -1    0    0  501    0 +0.0000000000e+00 +0.0000000000e+00 +1.1253407495e+03 1.1253407495e+03 0.0000000000e+00 0.0000e+00 -1.0000e+00
       -2 -1    0    0    0  501 -0.0000000000e+00 -0.0000000000e+00 -2.7570010762e+02 2.7570010762e+02 0.0000000000e+00 0.0000e+00 1.0000e+00
      -13  1    1    2    0    0 +3.8934935832e+02 -3.4515837641e+02 +6.7486642115e+02 8.5215721203e+02 0.0000000000e+00 0.0000e+00 1.0000e+00
       13  1    1    2    0    0 -3.8934935832e+02 +3.4515837641e+02 +1.7477422077e+02 5.4888364512e+02 0.0000000000e+00 0.0000e+00 -1.0000e+00
<mgrwt>
<rscale>  0 0.11140136E+04</rscale>
<asrwt>0</asrwt>
<pdfrwt beam="1">  1        2 0.17312934E+00 0.11140136E+04</pdfrwt>
<pdfrwt beam="2">  1       -2 0.42415402E-01 0.11140136E+04</pdfrwt>
<totfact> 0.13532821E+02</totfact>
</mgrwt>
<rwgt>
<wgt id='morphing_basis_vector_1'> +2.0805241e-04 </wgt>
<wgt id='morphing_basis_vector_2'> +1.8488983e-04 </wgt>
<wgt id='morphing_basis_vector_3'> +2.0688457e-04 </wgt>
<wgt id='morphing_basis_vector_4'> +7.9433082e-05 </wgt>
<wgt id='morphing_basis_vector_5'> +1.8184004e-04 </wgt>
</rwgt>
</event>
<event>
 4      1 +7.8865000e-07 1.13098100e+03 7.81860800e-03 8.56875400e-02
        2 -1    0    0  501    0 +0.0000000000e+00 +0.0000000000e+00 +1.8189412370e+03 1.8189412370e+03 0.0000000000e+00 0.0000e+00 -1.0000e+00
       -2 -1    0    0    0  501 -0.0000000000e+00 -0.0000000000e+00 -1.7580538360e+02 1.7580538360e+02 0.0000000000e+00 0.0000e+00 1.0000e+00
      -13  1    1    2    0    0 +4.8713005928e+02 -2.6723006992e+02 +6.3598138496e+02 8.4449980873e+02 0.0000000000e+00 0.0000e+00 1.0000e+00
       13  1    1    2    0    0 -4.8713005928e+02 +2.6723006992e+02 +1.0071544684e+03 1.1502468118e+03 0.0000000000e+00 0.0000e+00 -1.0000e+00
<mgrwt>
<rscale>  0 0.11309813E+04</rscale>
<asrwt>0</asrwt>
<pdfrwt beam="1">  1        2 0.27983710E+00 0.11309813E+04</pdfrwt>
<pdfrwt beam="2">  1       -2 0.27046983E-01 0.11309813E+04</pdfrwt>
<totfact> 0.12397548E+02</totfact>
</mgrwt>
<rwgt>
<wgt id='morphing_basis_vector_1'> +2.0017850e-04 </wgt>
<wgt id='morphing_basis_vector_2'> +1.3558385e-04 </wgt>
<wgt id='morphing_basis_vector_3'> +1.9850100e-04 </wgt>
<wgt id='morphing_basis_vector_4'> +1.1802326e-04 </wgt>
<wgt id='morphing_basis_vector_5'> +1.9611650e-04 </wgt>
</rwgt>
</event>
<event>
 4      1 +7.8865000e-07 1.28292400e+03 7.81860800e-03 8.45347600e-02
        2 -1    0    0  501    0 +0.0000000000e+00 +0.0000000000e+00 +7.1084837871e+02 7.1084837871e+02 0.0000000000e+00 0.0000e+00 -1.0000e+00
       -2 -1    0    0    0  501 -0.0000000000e+00 -0.0000000000e+00 -5.7884831649e+02 5.7884831649e+02 0.0000000000e+00 0.0000e+00 1.0000e+00
      -13  1    1    2    0    0 -5.5655032009e+02 -1.4801814333e+02 -2.1800827131e+02 6.1578018473e+02 0.0000000000e+00 0.0000e+00 1.0000e+00
       13  1    1    2    0    0 +5.5655032009e+02 +1.4801814333e+02 +3.5000833353e+02 6.7391651047e+02 0.0000000000e+00 0.0000e+00 -1.0000e+00
<mgrwt>
<rscale>  0 0.12829238E+04</rscale>
<asrwt>0</asrwt>
<pdfrwt beam="1">  1        2 0.10936129E+00 0.12829238E+04</pdfrwt>
<pdfrwt beam="2">  1       -2 0.89053587E-01 0.12829238E+04</pdfrwt>
<totfact> 0.53312474E+01</totfact>
</mgrwt>
<rwgt>
<wgt id='morphing_basis_vector_1'> +3.1877148e-04 </wgt>
<wgt id='morphing_basis_vector_2'> +2.0993909e-04 </wgt>
<wgt id='morphing_basis_vector_3'> +3.2356570e-04 </wgt>
<wgt id='morphing_basis_vector_4'> +2.0748309e-04 </wgt>
<wgt id='morphing_basis_vector_5'> +3.3473408e-04 </wgt>
</rwgt>
</event>
<event>
 4      1 +7.8865000e-07 1.22444900e+03 7.81860800e-03 8.49574900e-02
        2 -1    0    0  501    0 +0.0000000000e+00 +0.0000000000e+00 +3.3908749528e+03 3.3908749528e+03 0.0000000000e+00 0.0000e+00 1.0000e+00
       -2 -1    0    0    0  501 -0.0000000000e+00 -0.0000000000e+00 -1.1053754438e+02 1.1053754438e+02 0.0000000000e+00 0.0000e+00 -1.0000e+00
      -13  1    1    2    0    0 +5.1114910515e+02 +3.3852195418e+01 +6.8146392140e+02 8.5253296417e+02 0.0000000000e+00 0.0000e+00 -1.0000e+00
       13  1    1    2    0    0 -5.1114910515e+02 -3.3852195418e+01 +2.5988734870e+03 2.6488795330e+03 0.0000000000e+00 0.0000e+00 1.0000e+00
<mgrwt>
<rscale>  0 0.12244492E+04</rscale>
<asrwt>0</asrwt>
<pdfrwt beam="1">  1        2 0.52167299E+00 0.12244492E+04</pdfrwt>
<pdfrwt beam="2">  1       -2 0.17005779E-01 0.12244492E+04</pdfrwt>
<totfact> 0.29701328E+01</totfact>
</mgrwt>
<rwgt>
<wgt id='morphing_basis_vector_1'> +2.6630183e-04 </wgt>
<wgt id='morphing_basis_vector_2'> +1.7295656e-04 </wgt>
<wgt id='morphing_basis_vector_3'> +2.6795468e-04 </wgt>
<wgt id='morphing_basis_vector_4'> +1.7174310e-04 </wgt>
<wgt id='morphing_basis_vector_5'> +2.7510452e-04 </wgt>
</rwgt>
</event>
<event>
 4      1 +7.8865000e-07 1.27730300e+03 7.81860800e-03 8.45743600e-02
        2 -1    0    0  501    0 +0.0000000000e+00 +0.0000000000e+00 +1.7226351502e+03 1.7226351502e+03 0.0000000000e+00 0.0000e+00 -1.0000e+00
       -2 -1    0    0    0  501 -0.0000000000e+00 -0.0000000000e+00 -2.3677418174e+02 2.3677418174e+02 0.0000000000e+00 0.0000e+00 1.0000e+00
      -13  1    1    2    0    0 +3.3289268271e+02 +1.3089036265e+02 -6.8689516066e+01 3.6423628987e+02 0.0000000000e+00 0.0000e+00 1.0000e+00
       13  1    1    2    0    0 -3.3289268271e+02 -1.3089036265e+02 +1.5545504846e+03 1.5951730421e+03 0.0000000000e+00 0.0000e+00 -1.0000e+00
<mgrwt>
<rscale>  0 0.12773027E+04</rscale>
<asrwt>0</asrwt>
<pdfrwt beam="1">  1        2 0.26502078E+00 0.12773027E+04</pdfrwt>
<pdfrwt beam="2">  1       -2 0.36426798E-01 0.12773027E+04</pdfrwt>
<totfact> 0.81441956E+01</totfact>
</mgrwt>
<rwgt>
<wgt id='morphing_basis_vector_1'> +3.1173911e-04 </wgt>
<wgt id='morphing_basis_vector_2'> +2.0113640e-04 </wgt>
<wgt id='morphing_basis_vector_3'> +3.1588381e-04 </wgt>
<wgt id='morphing_basis_vector_4'> +2.0677812e-04 </wgt>
<wgt id='morphing_basis_vector_5'> +3.2882904e-04 </wgt>
</rwgt>
</event>
<event>
 4      1 +7.8865000e-07 1.24388500e+03 7.81860800e-03 8.48142800e-02
        2 -1    0    0  501    0 +0.0000000000e+00 +0.0000000000e+00 +7.8576397142e+02 7.8576397142e+02 0.0000000000e+00 0.0000e+00 -1.0000e+00
       -2 -1    0    0    0  501 -0.0000000000e+00 -0.0000000000e+00 -4.9227584682e+02 4.9227584682e+02 0.0000000000e+00 0.0000e+00 1.0000e+00
      -13  1    1    2    0    0 -2.7356445416e+02 -1.4014681340e+02 -4.0878108384e+02 5.1144952282e+02 0.0000000000e+00 0.0000e+00 1.0000e+00
       13  1    1    2    0    0 +2.7356445416e+02 +1.4014681340e+02 +7.0226920845e+02 7.6659029541e+02 0.0000000000e+00 0.0000e+00 -1.0000e+00
<mgrwt>
<rscale>  0 0.12438852E+04</rscale>
<asrwt>0</asrwt>
<pdfrwt beam="1">  1        2 0.12088676E+00 0.12438852E+04</pdfrwt>
<pdfrwt beam="2">  1       -2 0.75734746E-01 0.12438852E+04</pdfrwt>
<totfact> 0.68219720E+01</totfact>
</mgrwt>
<rwgt>
<wgt id='morphing_basis_vector_1'> +2.8180076e-04 </wgt>
<wgt id='morphing_basis_vector_2'> +1.8121393e-04 </wgt>
<wgt id='morphing_basis_vector_3'> +2.8422659e-04 </wgt>
<wgt id='morphing_basis_vector_4'> +1.8507550e-04 </wgt>
<wgt id='morphing_basis_vector_5'> +2.9411176e-04 </wgt>
</rwgt>
</event>
<event>
 4      1 +7.8865000e-07 1.28830400e+03 7.81860800e-03 8.44970600e-02
        2 -1    0    0  501    0 +0.0000000000e+00 +0.0000000000e+00 +1.1984837388e+03 1.1984837388e+03 0.0000000000e+00 0.0000e+00 1.0000e+00
       -2 -1    0    0    0  501 -0.0000000000e+00 -0.0000000000e+00 -3.4621378972e+02 3.4621378972e+02 0.0000000000e+00 0.0000e+00 -1.0000e+00
      -13  1    1    2    0    0 -2.1381727523e+02 +4.2661802747e+02 -9.2653936857e+01 4.8611266242e+02 0.0000000000e+00 0.0000e+00 -1.0000e+00
       13  1    1    2    0    0 +2.1381727523e+02 -4.2661802747e+02 +9.4492388596e+02 1.0585848661e+03 0.0000000000e+00 0.0000e+00 1.0000e+00
<mgrwt>
<rscale>  0 0.12883037E+04</rscale>
<asrwt>0</asrwt>
<pdfrwt beam="1">  1        2 0.18438211E+00 0.12883037E+04</pdfrwt>
<pdfrwt beam="2">  1       -2 0.53263661E-01 0.12883037E+04</pdfrwt>
<totfact> 0.77777293E+01</totfact>
</mgrwt>
<rwgt>
<wgt id='morphing_basis_vector_1'> +3.2247299e-04 </wgt>
<wgt id='morphing_basis_vector_2'> +2.0914175e-04 </wgt>
<wgt id='morphing_basis_vector_3'> +3.2730240e-04 </wgt>
<wgt id='morphing_basis_vector_4'> +2.1366881e-04 </wgt>
<wgt id='morphing_basis_vector_5'> +3.4084671e-04 </wgt>
</rwgt>
</event>
<event>
 4      1 +7.8865000e-07 1.18457200e+03 7.81860800e-03 8.52602700e-02
        2 -1    0    0  501    0 +0.0000000000e+00 +0.0000000000e+00 +5.5965410346e+02 5.5965410346e+02 0.0000000000e+00 0.0000e+00 1.0000e+00
       -2 -1    0    0    0  501 -0.0000000000e+00 -0.0000000000e+00 -6.2682017091e+02 6.2682017091e+02 0.0000000000e+00 0.0000e+00 -1.0000e+00
      -13  1    1    2    0    0 -1.2074939762e+02 +4.2003141087e+02 -4.3396961725e+02 6.1590294028e+02 0.0000000000e+00 0.0000e+00 -1.0000e+00
       13  1    1    2    0    0 +1.2074939762e+02 -4.2003141087e+02 +3.6680354980e+02 5.7057133410e+02 0.0000000000e+00 0.0000e+00 1.0000e+00
<mgrwt>
<rscale>  0 0.11845716E+04</rscale>
<asrwt>0</asrwt>
<pdfrwt beam="1">  1        2 0.86100631E-01 0.11845716E+04</pdfrwt>
<pdfrwt beam="2">  1       -2 0.96433873E-01 0.11845716E+04</pdfrwt>
<totfact> 0.59273716E+01</totfact>
</mgrwt>
<rwgt>
<wgt id='morphing_basis_vector_1'> +2.3449478e-04 </wgt>
<wgt id='morphing_basis_vector_2'> +1.5070235e-04 </wgt>
<wgt id='morphing_basis_vector_3'> +2.3441231e-04 </wgt>
<wgt id='morphing_basis_vector_4'> +1.5011562e-04 </wgt>
<wgt id='morphing_basis_vector_5'> +2.3919863e-04 </wgt>
</rwgt>
</event>
<event>
 4      1 +7.8865000e-07 1.22097900e+03 7.81860800e-03 8.49833500e-02
        2 -1    0    0  501    0 +0.0000000000e+00 +0.0000000000e+00 +2.1440243171e+03 2.1440243171e+03 0.0000000000e+00 0.0000e+00 -1.0000e+00
       -2 -1    0    0    0  501 -0.0000000000e+00 -0.0000000000e+00 -1.7383084102e+02 1.7383084102e+02 0.0000000000e+00 0.0000e+00 1.0000e+00
      -13  1    1    2    0    0 +3.8797095595e+02 -4.0263056156e+01 +9.3565721432e+01 4.0111983319e+02 0.0000000000e+00 0.0000e+00 1.0000e+00
       13  1    1    2    0    0 -3.8797095595e+02 +4.0263056156e+01 +1.8766277546e+03 1.9167353249e+03 0.0000000000e+00 0.0000e+00 -1.0000e+00
<mgrwt>
<rscale>  0 0.12209792E+04</rscale>
<asrwt>0</asrwt>
<pdfrwt beam="1">  1        2 0.32984988E+00 0.12209792E+04</pdfrwt>
<pdfrwt beam="2">  1       -2 0.26743208E-01 0.12209792E+04</pdfrwt>
<totfact> 0.82614701E+01</totfact>
</mgrwt>
<rwgt>
<wgt id='morphing_basis_vector_1'> +2.6274071e-04 </wgt>
<wgt id='morphing_basis_vector_2'> +1.6891788e-04 </wgt>
<wgt id='morphing_basis_vector_3'> +2.6413101e-04 </wgt>
<wgt id='morphing_basis_vector_4'> +1.7093357e-04 </wgt>
<wgt id='morphing_basis_vector_5'> +2.7191123e-04 </wgt>
</rwgt>
</event>
<event>
 4      1 +7.8865000e-07 1.08859000e+03 7.81860800e-03 8.60434100e-02
        2 -1    0    0  501    0 +0.0000000000e+00 +0.0000000000e+00 +1.6596061679e+03 1.6596061679e+03 0.0000000000e+00 0.0000e+00 -1.0000e+00
       -2 -1    0    0    0  501 -0.0000000000e+00 -0.0000000000e+00 -1.7851060269e+02 1.7851060269e+02 0.0000000000e+00 0.0000e+00 1.0000e+00
      -13  1    1    2    0    0 -5.4067571604e+02 -3.3620017066e+01 +8.2984466848e+02 9.9101095316e+02 0.0000000000e+00 0.0000e+00 1.0000e+00
       13  1    1    2    0    0 +5.4067571604e+02 +3.3620017066e+01 +6.5125089676e+02 8.4710581748e+02 0.0000000000e+00 0.0000e+00 -1.0000e+00
<mgrwt>
<rscale>  0 0.10885905E+04</rscale>
<asrwt>0</asrwt>
<pdfrwt beam="1">  1        2 0.25532402E+00 0.10885905E+04</pdfrwt>
<pdfrwt beam="2">  1       -2 0.27463171E-01 0.10885905E+04</pdfrwt>
<totfact> 0.14836519E+02</totfact>
</mgrwt>
<rwgt>
<wgt id='morphing_basis_vector_1'> +1.7906061e-04 </wgt>
<wgt id='morphing_basis_vector_2'> +1.3384937e-04 </wgt>
<wgt id='morphing_basis_vector_3'> +1.7626108e-04 </wgt>
<wgt id='morphing_basis_vector_4'> +9.1201940e-05 </wgt>
<wgt id='morphing_basis_vector_5'> +1.6599586e-04 </wgt>
</rwgt>
</event>
<event>
 4      1 +7.8865000e-07 1.14275300e+03 7.81860800e-03 8.55915700e-02
        2 -1    0    0  501    0 +0.0000000000e+00 +0.0000000000e+00 +1.9216644713e+03 1.9216644713e+03 0.0000000000e+00 0.0000e+00 -1.0000e+00
       -2 -1    0    0    0  501 -0.0000000000e+00 -0.0000000000e+00 -1.6988972492e+02 1.6988972492e+02 0.0000000000e+00 0.0000e+00 1.0000e+00
      -13  1    1    2    0    0 -9.3377228654e+01 +5.4902134889e+02 +1.1097570830e+03 1.2416539501e+03 0.0000000000e+00 0.0000e+00 1.0000e+00
       13  1    1    2    0    0 +9.3377228654e+01 -5.4902134889e+02 +6.4201766335e+02 8.4990024616e+02 0.0000000000e+00 0.0000e+00 -1.0000e+00
<mgrwt>
<rscale>  0 0.11427529E+04</rscale>
<asrwt>0</asrwt>
<pdfrwt beam="1">  1        2 0.29564067E+00 0.11427529E+04</pdfrwt>
<pdfrwt beam="2">  1       -2 0.26136882E-01 0.11427529E+04</pdfrwt>
<totfact> 0.11528013E+02</totfact>
</mgrwt>
<rwgt>
<wgt id='morphing_basis_vector_1'> +2.2043737e-04 </wgt>
<wgt id='morphing_basis_vector_2'> +1.7818370e-04 </wgt>
<wgt id='morphing_basis_vector_3'> +2.2019035e-04 </wgt>
<wgt id='morphing_basis_vector_4'> +1.0270677e-04 </wgt>
<wgt id='morphing_basis_vector_5'> +2.0359994e-04 </wgt>
</rwgt>
</event>
<event>
 4      1 +7.8865000e-07 1.11846900e+03 7.81860800e-03 8.57908900e-02
        2 -1    0    0  501    0 +0.0000000000e+00 +0.0000000000e+00 +5.8622292961e+02 5.8622292961e+02 0.0000000000e+00 0.0000e+00 -1.0000e+00
       -2 -1    0    0    0  501 -0.0000000000e+00 -0.0000000000e+00 -5.3348849961e+02 5.3348849961e+02 0.0000000000e+00 0.0000e+00 1.0000e+00
      -13  1    1    2    0    0 -2.7287557200e+02 +4.0726097994e+02 -2.4304250835e+02 5.4716747385e+02 0.0000000000e+00 0.0000e+00 1.0000e+00
       13  1    1    2    0    0 +2.7287557200e+02 -4.0726097994e+02 +2.9577693834e+02 5.7254395537e+02 0.0000000000e+00 0.0000e+00 -1.0000e+00
<mgrwt>
<rscale>  0 0.11184689E+04</rscale>
<asrwt>0</asrwt>
<pdfrwt beam="1">  1        2 0.90188143E-01 0.11184689E+04</pdfrwt>
<pdfrwt beam="2">  1       -2 0.82075154E-01 0.11184689E+04</pdfrwt>
<totfact> 0.82123361E+01</totfact>
</mgrwt>
<rwgt>
<wgt id='morphing_basis_vector_1'> +1.8952782e-04 </wgt>
<wgt id='morphing_basis_vector_2'> +1.2246293e-04 </wgt>
<wgt id='morphing_basis_vector_3'> +1.8729110e-04 </wgt>
<wgt id='morphing_basis_vector_4'> +1.1664890e-04 </wgt>
<wgt id='morphing_basis_vector_5'> +1.8729274e-04 </wgt>
</rwgt>
</event>
<event>
 4      1 +7.8865000e-07 1.15833100e+03 7.81860800e-03 8.54664300e-02
        2 -1    0    0  501    0 +0.0000000000e+00 +0.0000000000e+00 +1.3340679038e+03 1.3340679038e+03 0.0000000000e+00 0.0000e+00 1.0000e+00
       -2 -1    0    0    0  501 -0.0000000000e+00 -0.0000000000e+00 -2.5143605237e+02 2.5143605237e+02 0.0000000000e+00 0.0000e+00 -1.0000e+00
      -13  1    1    2    0    0 +2.2185606134e+02 +2.5640415531e+02 -1.0138498292e+02 3.5389563091e+02 0.0000000000e+00 0.0000e+00 -1.0000e+00
       13  1    1    2    0    0 -2.2185606134e+02 -2.5640415531e+02 +1.1840168343e+03 1.2316083252e+03 0.0000000000e+00 0.0000e+00 1.0000e+00
<mgrwt>
<rscale>  0 0.11583312E+04</rscale>
<asrwt>0</asrwt>
<pdfrwt beam="1">  1        2 0.20524121E+00 0.11583312E+04</pdfrwt>
<pdfrwt beam="2">  1       -2 0.38682470E-01 0.11583312E+04</pdfrwt>
<totfact> 0.12126802E+02</totfact>
</mgrwt>
<rwgt>
<wgt id='morphing_basis_vector_1'> +2.1526042e-04 </wgt>
<wgt id='morphing_basis_vector_2'> +1.3744014e-04 </wgt>
<wgt id='morphing_basis_vector_3'> +2.1420585e-04 </wgt>
<wgt id='morphing_basis_vector_4'> +1.3693049e-04 </wgt>
<wgt id='morphing_basis_vector_5'> +2.1752896e-04 </wgt>
</rwgt>
</event>
<event>
 4      1 +7.8865000e-07 1.27849500e+03 7.81860800e-03 8.45659400e-02
        2 -1    0    0  501    0 +0.0000000000e+00 +0.0000000000e+00 +1.6454744392e+03 1.6454744392e+03 0.0000000000e+00 0.0000e+00 -1.0000e+00
       -2 -1    0    0    0  501 -0.0000000000e+00 -0.0000000000e+00 -2.4834024063e+02 2.4834024063e+02 0.0000000000e+00 0.0000e+00 1.0000e+00
      -13  1    1    2    0    0 -4.3121736332e+02 -2.6548851318e+02 +1.2066701630e+02 5.2056997021e+02 0.0000000000e+00 0.0000e+00 1.0000e+00
       13  1    1    2    0    0 +4.3121736332e+02 +2.6548851318e+02 +1.2764671823e+03 1.3732447096e+03 0.0000000000e+00 0.0000e+00 -1.0000e+00
<mgrwt>
<rscale>  0 0.12784952E+04</rscale>
<asrwt>0</asrwt>
<pdfrwt beam="1">  1        2 0.25314991E+00 0.12784952E+04</pdfrwt>
<pdfrwt beam="2">  1       -2 0.38206192E-01 0.12784952E+04</pdfrwt>
<totfact> 0.82307083E+01</totfact>
</mgrwt>
<rwgt>
<wgt id='morphing_basis_vector_1'> +3.1346838e-04 </wgt>
<wgt id='morphing_basis_vector_2'> +2.0372822e-04 </wgt>
<wgt id='morphing_basis_vector_3'> +3.1779517e-04 </wgt>
<wgt id='morphing_basis_vector_4'> +2.0649570e-04 </wgt>
<wgt id='morphing_basis_vector_5'> +3.3004502e-04 </wgt>
</rwgt>
</event>
<event>
 4      1 +7.8865000e-07 1.08464700e+03 7.81860800e-03 8.60773600e-02
        2 -1    0    0  501    0 +0.0000000000e+00 +0.0000000000e+00 +5.9281178028e+02 5.9281178028e+02 0.0000000000e+00 0.0000e+00 -1.0000e+00
       -2 -1    0    0    0  501 -0.0000000000e+00 -0.0000000000e+00 -4.9613490361e+02 4.9613490361e+02 0.0000000000e+00 0.0000e+00 1.0000e+00
      -13  1    1    2    0    0 +4.3157087169e+02 +1.4596290734e+02 -2.4703196552e+02 5.1825030593e+02 0.0000000000e+00 0.0000e+00 1.0000e+00
       13  1    1    2    0    0 -4.3157087169e+02 -1.4596290734e+02 +3.4370884219e+02 5.7069637795e+02 0.0000000000e+00 0.0000e+00 -1.0000e+00
<mgrwt>
<rscale>  0 0.10846467E+04</rscale>
<asrwt>0</asrwt>
<pdfrwt beam="1">  1        2 0.91201812E-01 0.10846467E+04</pdfrwt>
<pdfrwt beam="2">  1       -2 0.76328447E-01 0.10846467E+04</pdfrwt>
<totfact> 0.95682773E+01</totfact>
</mgrwt>
<rwgt>
<wgt id='morphing_basis_vector_1'> +1.6870974e-04 </wgt>
<wgt id='morphing_basis_vector_2'> +1.0805380e-04 </wgt>
<wgt id='morphing_basis_vector_3'> +1.6556691e-04 </wgt>
<wgt id='morphing_basis_vector_4'> +1.0271670e-04 </wgt>
<wgt id='morphing_basis_vector_5'> +1.6425798e-04 </wgt>
</rwgt>
</event>
<event>
 4      1 +7.8865000e-07 1.18183800e+03 7.81860800e-03 8.52814800e-02
        2 -1    0    0  501    0 +0.0000000000e+00 +0.0000000000e+00 +1.4921378052e+03 1.4921378052e+03 0.0000000000e+00 0.0000e+00 1.0000e+00
       -2 -1    0    0    0  501 -0.0000000000e+00 -0.0000000000e+00 -2.3401691901e+02 2.3401691901e+02 0.0000000000e+00 0.0000e+00 -1.0000e+00
      -13  1    1    2    0    0 -4.1565644396e+02 -2.4359709779e+02 +1.2930797310e+02 4.9882900614e+02 0.0000000000e+00 0.0000e+00 -1.0000e+00
       13  1    1    2    0    0 +4.1565644396e+02 +2.4359709779e+02 +1.1288129131e+03 1.2273257180e+03 0.0000000000e+00 0.0000e+00 1.0000e+00
<mgrwt>
<rscale>  0 0.11818384E+04</rscale>
<asrwt>0</asrwt>
<pdfrwt beam="1">  1        2 0.22955966E+00 0.11818384E+04</pdfrwt>
<pdfrwt beam="2">  1       -2 0.36002604E-01 0.11818384E+04</pdfrwt>
<totfact> 0.11257800E+02</totfact>
</mgrwt>
<rwgt>
<wgt id='morphing_basis_vector_1'> +2.3276373e-04 </wgt>
<wgt id='morphing_basis_vector_2'> +1.5027412e-04 </wgt>
<wgt id='morphing_basis_vector_3'> +2.3261296e-04 </wgt>
<wgt id='morphing_basis_vector_4'> +1.4813593e-04 </wgt>
<wgt id='morphing_basis_vector_5'> +2.3683253e-04 </wgt>
</rwgt>
</event>
<event>
 4      1 +7.8865000e-07 1.15369400e+03 7.81860800e-03 8.55034600e-02
        2 -1    0    0  501    0 +0.0000000000e+00 +0.0000000000e+00 +9.4527105737e+02 9.4527105737e+02 0.0000000000e+00 0.0000e+00 -1.0000e+00
       -2 -1    0    0    0  501 -0.0000000000e+00 -0.0000000000e+00 -3.5201828903e+02 3.5201828903e+02 0.0000000000e+00 0.0000e+00 1.0000e+00
      -13  1    1    2    0    0 +1.3737337196e+02 +1.4359407179e+02 -3.1231285093e+02 3.7017565781e+02 0.0000000000e+00 0.0000e+00 1.0000e+00
       13  1    1    2    0    0 -1.3737337196e+02 -1.4359407179e+02 +9.0556561927e+02 9.2711368859e+02 0.0000000000e+00 0.0000e+00 -1.0000e+00
<mgrwt>
<rscale>  0 0.11536944E+04</rscale>
<asrwt>0</asrwt>
<pdfrwt beam="1">  1        2 0.14542632E+00 0.11536944E+04</pdfrwt>
<pdfrwt beam="2">  1       -2 0.54156660E-01 0.11536944E+04</pdfrwt>
<totfact> 0.10832426E+02</totfact>
</mgrwt>
<rwgt>
<wgt id='morphing_basis_vector_1'> +2.1194811e-04 </wgt>
<wgt id='morphing_basis_vector_2'> +1.3506165e-04 </wgt>
<wgt id='morphing_basis_vector_3'> +2.1073033e-04 </wgt>
<wgt id='morphing_basis_vector_4'> +1.3476470e-04 </wgt>
<wgt id='morphing_basis_vector_5'> +2.1386033e-04 </wgt>
</rwgt>
</event>
<event>
 4      1 +7.8865000e-07 1.07194800e+03 7.81860800e-03 8.61877100e-02
        2 -1    0    0  501    0 +0.0000000000e+00 +0.0000000000e+00 +6.4944481211e+02 6.4944481211e+02 0.0000000000e+00 0.0000e+00 -1.0000e+00
       -2 -1    0    0    0  501 -0.0000000000e+00 -0.0000000000e+00 -4.4232881714e+02 4.4232881714e+02 0.0000000000e+00 0.0000e+00 1.0000e+00
      -13  1    1    2    0    0 -4.4230340987e+02 +6.5045215274e+01 -1.9755321204e+02 4.8876421513e+02 0.0000000000e+00 0.0000e+00 1.0000e+00
       13  1    1    2    0    0 +4.4230340987e+02 -6.5045215274e+01 +4.0466920701e+02 6.0300941412e+02 0.0000000000e+00 0.0000e+00 -1.0000e+00
<mgrwt>
<rscale>  0 0.10719481E+04</rscale>
<asrwt>0</asrwt>
<pdfrwt beam="1">  1        2 0.99914587E-01 0.10719481E+04</pdfrwt>
<pdfrwt beam="2">  1       -2 0.68050587E-01 0.10719481E+04</pdfrwt>
<totfact> 0.11019046E+02</totfact>
</mgrwt>
<rwgt>
<wgt id='morphing_basis_vector_1'> +1.6142138e-04 </wgt>
<wgt id='morphing_basis_vector_2'> +1.0316084e-04 </wgt>
<wgt id='morphing_basis_vector_3'> +1.5798358e-04 </wgt>
<wgt id='morphing_basis_vector_4'> +9.7722870e-05 </wgt>
<wgt id='morphing_basis_vector_5'> +1.5616548e-04 </wgt>
</rwgt>
</event>
<event>
 4      1 +7.8865000e-07 1.18213500e+03 7.81860800e-03 8.52791700e-02
        2 -1    0    0  501    0 +0.0000000000e+00 +0.0000000000e+00 +2.4408576496e+03 2.4408576496e+03 0.0000000000e+00 0.0000e+00 1.0000e+00
       -2 -1    0    0    0  501 -0.0000000000e+00 -0.0000000000e+00 -1.4313037712e+02 1.4313037712e+02 0.0000000000e+00 0.0000e+00 -1.0000e+00
      -13  1    1    2    0    0 +9.1003640461e+01 +5.8310936138e+02 +1.0776069134e+03 1.2286312912e+03 0.0000000000e+00 0.0000e+00 -1.0000e+00
       13  1    1    2    0    0 -9.1003640461e+01 -5.8310936138e+02 +1.2201203591e+03 1.3553567355e+03 0.0000000000e+00 0.0000e+00 1.0000e+00
<mgrwt>
<rscale>  0 0.11821351E+04</rscale>
<asrwt>0</asrwt>
<pdfrwt beam="1">  1        2 0.37551653E+00 0.11821351E+04</pdfrwt>
<pdfrwt beam="2">  1       -2 0.22020060E-01 0.11821351E+04</pdfrwt>
<totfact> 0.78077494E+01</totfact>
</mgrwt>
<rwgt>
<wgt id='morphing_basis_vector_1'> +2.3917933e-04 </wgt>
<wgt id='morphing_basis_vector_2'> +1.6904070e-04 </wgt>
<wgt id='morphing_basis_vector_3'> +2.3976492e-04 </wgt>
<wgt id='morphing_basis_vector_4'> +1.3774095e-04 </wgt>
<wgt id='morphing_basis_vector_5'> +2.3637493e-04 </wgt>
</rwgt>
</event>
<event>
 4      1 +7.8865000e-07 1.11808900e+03 7.81860800e-03 8.57940500e-02
        2 -1    0    0  501    0 +0.0000000000e+00 +0.0000000000e+00 +3.0448062163e+02 3.0448062163e+02 0.0000000000e+00 0.0000e+00 -1.0000e+00
       -2 -1    0    0    0  501 -0.0000000000e+00 -0.0000000000e+00 -1.0264387296e+03 1.0264387296e+03 0.0000000000e+00 0.0000e+00 1.0000e+00
      -13  1    1    2    0    0 +3.9257332929e+02 +3.0891560946e+02 -6.5972664504e+02 8.2751550971e+02 0.0000000000e+00 0.0000e+00 1.0000e+00
       13  1    1    2    0    0 -3.9257332929e+02 -3.0891560946e+02 -6.2231462896e+01 5.0340384148e+02 0.0000000000e+00 0.0000e+00 -1.0000e+00
<mgrwt>
<rscale>  0 0.11180889E+04</rscale>
<asrwt>0</asrwt>
<pdfrwt beam="1">  1        2 0.46843173E-01 0.11180889E+04</pdfrwt>
<pdfrwt beam="2">  1       -2 0.15791365E+00 0.11180889E+04</pdfrwt>
<totfact> 0.32387734E+01</totfact>
</mgrwt>
<rwgt>
<wgt id='morphing_basis_vector_1'> +1.8944662e-04 </wgt>
<wgt id='morphing_basis_vector_2'> +1.2278483e-04 </wgt>
<wgt id='morphing_basis_vector_3'> +1.8720851e-04 </wgt>
<wgt id='morphing_basis_vector_4'> +1.1621508e-04 </wgt>
<wgt id='morphing_basis_vector_5'> +1.8700392e-04 </wgt>
</rwgt>
</event>
<event>
 4      1 +7.8865000e-07 1.16983000e+03 7.81860800e-03 8.53753800e-02
        2 -1    0    0  501    0 +0.0000000000e+00 +0.0000000000e+00 +6.4672653133e+02 6.4672653133e+02 0.0000000000e+00 0.0000e+00 -1.0000e+00
       -2 -1    0    0    0  501 -0.0000000000e+00 -0.0000000000e+00 -5.2901124011e+02 5.2901124011e+02 0.0000000000e+00 0.0000e+00 1.0000e+00
      -13  1    1    2    0    0 +4.5451620131e+02 +1.5714205392e+02 -2.7576063380e+02 5.5436678248e+02 0.0000000000e+00 0.0000e+00 1.0000e+00
       13  1    1    2    0    0 -4.5451620131e+02 -1.5714205392e+02 +3.9347592502e+02 6.2137098897e+02 0.0000000000e+00 0.0000e+00 -1.0000e+00
<mgrwt>
<rscale>  0 0.11698301E+04</rscale>
<asrwt>0</asrwt>
<pdfrwt beam="1">  1        2 0.99496389E-01 0.11698301E+04</pdfrwt>
<pdfrwt beam="2">  1       -2 0.81386345E-01 0.11698301E+04</pdfrwt>
<totfact> 0.74226039E+01</totfact>
</mgrwt>
<rwgt>
<wgt id='morphing_basis_vector_1'> +2.2399874e-04 </wgt>
<wgt id='morphing_basis_vector_2'> +1.4453493e-04 </wgt>
<wgt id='morphing_basis_vector_3'> +2.2340464e-04 </wgt>
<wgt id='morphing_basis_vector_4'> +1.4181217e-04 </wgt>
<wgt id='morphing_basis_vector_5'> +2.2678628e-04 </wgt>
</rwgt>
</event>
<event>
 4      1 +7.8865000e-07 1.17929200e+03 7.81860800e-03 8.53012900e-02
        2 -1    0    0  501    0 +0.0000000000e+00 +0.0000000000e+00 +1.0458010416e+03 1.0458010416e+03 0.0000000000e+00 0.0000e+00 -1.0000e+00
       -2 -1    0    0    0  501 -0.0000000000e+00 -0.0000000000e+00 -3.3245541310e+02 3.3245541310e+02 0.0000000000e+00 0.0000e+00 1.0000e+00
      -13  1    1    2    0    0 -3.3506686925e+02 -3.3849831445e+02 -4.9582005894e+01 4.7886249703e+02 0.0000000000e+00 0.0000e+00 1.0000e+00
       13  1    1    2    0    0 +3.3506686925e+02 +3.3849831445e+02 +7.6292763438e+02 8.9939395765e+02 0.0000000000e+00 0.0000e+00 -1.0000e+00
<mgrwt>
<rscale>  0 0.11792917E+04</rscale>
<asrwt>0</asrwt>
<pdfrwt beam="1">  1        2 0.16089247E+00 0.11792917E+04</pdfrwt>
<pdfrwt beam="2">  1       -2 0.51146987E-01 0.11792917E+04</pdfrwt>
<totfact> 0.10482474E+02</totfact>
</mgrwt>
<rwgt>
<wgt id='morphing_basis_vector_1'> +2.3083539e-04 </wgt>
<wgt id='morphing_basis_vector_2'> +1.4889865e-04 </wgt>
<wgt id='morphing_basis_vector_3'> +2.3058325e-04 </wgt>
<wgt id='morphing_basis_vector_4'> +1.4685929e-04 </wgt>
<wgt id='morphing_basis_vector_5'> +2.3468058e-04 </wgt>
</rwgt>
</event>
<event>
 4      1 +7.8865000e-07 1.10504600e+03 7.81860800e-03 8.59033100e-02
        2 -1    0    0  501    0 +0.0000000000e+00 +0.0000000000e+00 +1.7467773378e+03 1.7467773378e+03 0.0000000000e+00 0.0000e+00 1.0000e+00
       -2 -1    0    0    0  501 -0.0000000000e+00 -0.0000000000e+00 -1.7476861875e+02 1.7476861875e+02 0.0000000000e+00 0.0000e+00 -1.0000e+00
      -13  1    1    2    0    0 -4.1508431382e+02 -3.4282073237e+02 +5.6978899748e+02 7.8388809391e+02 0.0000000000e+00 0.0000e+00 -1.0000e+00
       13  1    1    2    0    0 +4.1508431382e+02 +3.4282073237e+02 +1.0022197216e+03 1.1376578626e+03 0.0000000000e+00 0.0000e+00 1.0000e+00
<mgrwt>
<rscale>  0 0.11050464E+04</rscale>
<asrwt>0</asrwt>
<pdfrwt beam="1">  1        2 0.26873496E+00 0.11050464E+04</pdfrwt>
<pdfrwt beam="2">  1       -2 0.26887481E-01 0.11050464E+04</pdfrwt>
<totfact> 0.13759869E+02</totfact>
</mgrwt>
<rwgt>
<wgt id='morphing_basis_vector_1'> +1.8302344e-04 </wgt>
<wgt id='morphing_basis_vector_2'> +1.2254961e-04 </wgt>
<wgt id='morphing_basis_vector_3'> +1.8049963e-04 </wgt>
<wgt id='morphing_basis_vector_4'> +1.0770823e-04 </wgt>
<wgt id='morphing_basis_vector_5'> +1.7767537e-04 </wgt>
</rwgt>
</event>
<event>
 4      1 +7.8865000e-07 1.17332200e+03 7.81860800e-03 8.53479500e-02
        2 -1    0    0  501    0 +0.0000000000e+00 +0.0000000000e+00 +1.0392754691e+03 1.0392754691e+03 0.0000000000e+00 0.0000e+00 1.0000e+00
       -2 -1    0    0    0  501 -0.0000000000e+00 -0.0000000000e+00 -3.3116462425e+02 3.3116462425e+02 0.0000000000e+00 0.0000e+00 -1.0000e+00
      -13  1    1    2    0    0 +1.6984884219e+02 +2.6696966098e+02 -2.2295282059e+02 3.8707801447e+02 0.0000000000e+00 0.0000e+00 -1.0000e+00
       13  1    1    2    0    0 -1.6984884219e+02 -2.6696966098e+02 +9.3106366545e+02 9.8336207889e+02 0.0000000000e+00 0.0000e+00 1.0000e+00
<mgrwt>
<rscale>  0 0.11733222E+04</rscale>
<asrwt>0</asrwt>
<pdfrwt beam="1">  1        2 0.15988853E+00 0.11733222E+04</pdfrwt>
<pdfrwt beam="2">  1       -2 0.50948404E-01 0.11733222E+04</pdfrwt>
<totfact> 0.10665441E+02</totfact>
</mgrwt>
<rwgt>
<wgt id='morphing_basis_vector_1'> +2.2592400e-04 </wgt>
<wgt id='morphing_basis_vector_2'> +1.4439088e-04 </wgt>
<wgt id='morphing_basis_vector_3'> +2.2539105e-04 </wgt>
<wgt id='morphing_basis_vector_4'> +1.4464378e-04 </wgt>
<wgt id='morphing_basis_vector_5'> +2.2974275e-04 </wgt>
</rwgt>
</event>
<event>
 4      1 +7.8865000e-07 1.10657300e+03 7.81860800e-03 8.58904400e-02
        2 -1    0    0  501    0 +0.0000000000e+00 +0.0000000000e+00 +3.2768684988e+03 3.2768684988e+03 0.0000000000e+00 0.0000e+00 1.0000e+00
       -2 -1    0    0    0  501 -0.0000000000e+00 -0.0000000000e+00 -9.3420333594e+01 9.3420333594e+01 0.0000000000e+00 0.0000e+00 -1.0000e+00
      -13  1    1    2    0    0 -5.0549741984e+02 +1.5685386815e+02 +1.1006636737e+03 1.2213072096e+03 0.0000000000e+00 0.0000e+00 -1.0000e+00
       13  1    1    2    0    0 +5.0549741984e+02 -1.5685386815e+02 +2.0827844915e+03 2.1489816229e+03 0.0000000000e+00 0.0000e+00 1.0000e+00
<mgrwt>
<rscale>  0 0.11065734E+04</rscale>
<asrwt>0</asrwt>
<pdfrwt beam="1">  1        2 0.50413353E+00 0.11065734E+04</pdfrwt>
<pdfrwt beam="2">  1       -2 0.14372362E-01 0.11065734E+04</pdfrwt>
<totfact> 0.47474957E+01</totfact>
</mgrwt>
<rwgt>
<wgt id='morphing_basis_vector_1'> +1.8330904e-04 </wgt>
<wgt id='morphing_basis_vector_2'> +1.2120408e-04 </wgt>
<wgt id='morphing_basis_vector_3'> +1.8079765e-04 </wgt>
<wgt id='morphing_basis_vector_4'> +1.0943577e-04 </wgt>
<wgt id='morphing_basis_vector_5'> +1.7879799e-04 </wgt>
</rwgt>
</event>
<event>
 4      1 +7.8865000e-07 1.18641600e+03 7.81860800e-03 8.52459800e-02
        2 -1    0    0  501    0 +0.0000000000e+00 +0.0000000000e+00 +7.1569330949e+02 7.1569330949e+02 0.0000000000e+00 0.0000e+00 1.0000e+00
       -2 -1    0    0    0  501 -0.0000000000e+00 -0.0000000000e+00 -4.9168538520e+02 4.9168538520e+02 0.0000000000e+00 0.0000e+00 -1.0000e+00
      -13  1    1    2    0    0 -4.9301371286e+01 +2.4029427912e+02 -4.3765390089e+02 5.0170997873e+02 0.0000000000e+00 0.0000e+00 -1.0000e+00
       13  1    1    2    0    0 +4.9301371286e+01 -2.4029427912e+02 +6.6166182519e+02 7.0566871597e+02 0.0000000000e+00 0.0000e+00 1.0000e+00
<mgrwt>
<rscale>  0 0.11864164E+04</rscale>
<asrwt>0</asrwt>
<pdfrwt beam="1">  1        2 0.11010666E+00 0.11864164E+04</pdfrwt>
<pdfrwt beam="2">  1       -2 0.75643905E-01 0.11864164E+04</pdfrwt>
<totfact> 0.77243647E+01</totfact>
</mgrwt>
<rwgt>
<wgt id='morphing_basis_vector_1'> +2.3554493e-04 </wgt>
<wgt id='morphing_basis_vector_2'> +1.5061839e-04 </wgt>
<wgt id='morphing_basis_vector_3'> +2.3549329e-04 </wgt>
<wgt id='morphing_basis_vector_4'> +1.5167316e-04 </wgt>
<wgt id='morphing_basis_vector_5'> +2.4081966e-04 </wgt>
</rwgt>
</event>
<event>
 4      1 +7.8865000e-07 1.20286200e+03 7.81860800e-03 8.51198600e-02
        2 -1    0    0  501    0 +0.0000000000e+00 +0.0000000000e+00 +9.0786919658e+02 9.0786919658e+02 0.0000000000e+00 0.0000e+00 1.0000e+00
       -2 -1    0    0    0  501 -0.0000000000e+00 -0.0000000000e+00 -3.9842633776e+02 3.9842633776e+02 0.0000000000e+00 0.0000e+00 -1.0000e+00
      -13  1    1    2    0    0 -1.0166742918e+02 +2.5831274933e+02 -3.2468981077e+02 4.2718288337e+02 0.0000000000e+00 0.0000e+00 -1.0000e+00
       13  1    1    2    0    0 +1.0166742918e+02 -2.5831274933e+02 +8.3413266959e+02 8.7911265098e+02 0.0000000000e+00 0.0000e+00 1.0000e+00
<mgrwt>
<rscale>  0 0.12028616E+04</rscale>
<asrwt>0</asrwt>
<pdfrwt beam="1">  1        2 0.13967218E+00 0.12028616E+04</pdfrwt>
<pdfrwt beam="2">  1       -2 0.61296360E-01 0.12028616E+04</pdfrwt>
<totfact> 0.88729659E+01</totfact>
</mgrwt>
<rwgt>
<wgt id='morphing_basis_vector_1'> +2.4814480e-04 </wgt>
<wgt id='morphing_basis_vector_2'> +1.5895607e-04 </wgt>
<wgt id='morphing_basis_vector_3'> +2.4874523e-04 </wgt>
<wgt id='morphing_basis_vector_4'> +1.6072410e-04 </wgt>
<wgt id='morphing_basis_vector_5'> +2.5527356e-04 </wgt>
</rwgt>
</event>
<event>
 4      1 +7.8865000e-07 1.15756200e+03 7.81860800e-03 8.54725600e-02
        2 -1    0    0  501    0 +0.0000000000e+00 +0.0000000000e+00 +8.6212162006e+02 8.6212162006e+02 0.0000000000e+00 0.0000e+00 -1.0000e+00
       -2 -1    0    0    0  501 -0.0000000000e+00 -0.0000000000e+00 -3.8856166181e+02 3.8856166181e+02 0.0000000000e+00 0.0000e+00 1.0000e+00
      -13  1    1    2    0    0 -3.6430456875e+02 +3.6464179394e+02 +5.2121847646e+02 7.3304171567e+02 0.0000000000e+00 0.0000e+00 1.0000e+00
       13  1    1    2    0    0 +3.6430456875e+02 -3.6464179394e+02 -4.7658518218e+01 5.1764156620e+02 0.0000000000e+00 0.0000e+00 -1.0000e+00
<mgrwt>
<rscale>  0 0.11575619E+04</rscale>
<asrwt>0</asrwt>
<pdfrwt beam="1">  1        2 0.13263409E+00 0.11575619E+04</pdfrwt>
<pdfrwt beam="2">  1       -2 0.59778717E-01 0.11575619E+04</pdfrwt>
<totfact> 0.10046750E+02</totfact>
</mgrwt>
<rwgt>
<wgt id='morphing_basis_vector_1'> +2.4905053e-04 </wgt>
<wgt id='morphing_basis_vector_2'> +2.4035560e-04 </wgt>
<wgt id='morphing_basis_vector_3'> +2.5126961e-04 </wgt>
<wgt id='morphing_basis_vector_4'> +7.8678097e-05 </wgt>
<wgt id='morphing_basis_vector_5'> +2.1306967e-04 </wgt>
</rwgt>
</event>
<event>
 4      1 +7.8865000e-07 1.07038800e+03 7.81860800e-03 8.62013700e-02
        2 -1    0    0  501    0 +0.0000000000e+00 +0.0000000000e+00 +1.0336110821e+03 1.0336110821e+03 0.0000000000e+00 0.0000e+00 -1.0000e+00
       -2 -1    0    0    0  501 -0.0000000000e+00 -0.0000000000e+00 -2.7711852011e+02 2.7711852011e+02 0.0000000000e+00 0.0000e+00 1.0000e+00
      -13  1    1    2    0    0 +3.7581356889e+02 -1.0593356695e+01 -8.8179545334e+01 3.8616536611e+02 0.0000000000e+00 0.0000e+00 1.0000e+00
       13  1    1    2    0    0 -3.7581356889e+02 +1.0593356695e+01 +8.4467210730e+02 9.2456423607e+02 0.0000000000e+00 0.0000e+00 -1.0000e+00
<mgrwt>
<rscale>  0 0.10703883E+04</rscale>
<asrwt>0</asrwt>
<pdfrwt beam="1">  1        2 0.15901709E+00 0.10703883E+04</pdfrwt>
<pdfrwt beam="2">  1       -2 0.42633619E-01 0.10703883E+04</pdfrwt>
<totfact> 0.15272485E+02</totfact>
</mgrwt>
<rwgt>
<wgt id='morphing_basis_vector_1'> +1.6019980e-04 </wgt>
<wgt id='morphing_basis_vector_2'> +1.0153536e-04 </wgt>
<wgt id='morphing_basis_vector_3'> +1.5672325e-04 </wgt>
<wgt id='morphing_basis_vector_4'> +9.7676230e-05 </wgt>
<wgt id='morphing_basis_vector_5'> +1.5522700e-04 </wgt>
</rwgt>
</event>
<event>
 4      1 +7.8865000e-07 1.17344300e+03 7.81860800e-03 8.53470000e-02
        2 -1    0    0  501    0 +0.0000000000e+00 +0.0000000000e+00 +1.3965271601e+03 1.3965271601e+03 0.0000000000e+00 0.0000e+00 1.0000e+00
       -2 -1    0    0    0  501 -0.0000000000e+00 -0.0000000000e+00 -2.4649887062e+02 2.4649887062e+02 0.0000000000e+00 0.0000e+00 -1.0000e+00
      -13  1    1    2    0    0 +3.9882515468e+02 -4.2437519186e+02 +6.7487479427e+02 8.9141000410e+02 0.0000000000e+00 0.0000e+00 -1.0000e+00
       13  1    1    2    0    0 -3.9882515468e+02 +4.2437519186e+02 +4.7515349523e+02 7.5161602664e+02 0.0000000000e+00 0.0000e+00 1.0000e+00
<mgrwt>
<rscale>  0 0.11734434E+04</rscale>
<asrwt>0</asrwt>
<pdfrwt beam="1">  1        2 0.21485033E+00 0.11734434E+04</pdfrwt>
<pdfrwt beam="2">  1       -2 0.37922904E-01 0.11734434E+04</pdfrwt>
<totfact> 0.11584287E+02</totfact>
</mgrwt>
<rwgt>
<wgt id='morphing_basis_vector_1'> +2.3844901e-04 </wgt>
<wgt id='morphing_basis_vector_2'> +1.8184208e-04 </wgt>
<wgt id='morphing_basis_vector_3'> +2.3928565e-04 </wgt>
<wgt id='morphing_basis_vector_4'> +1.2359820e-04 </wgt>
<wgt id='morphing_basis_vector_5'> +2.2842940e-04 </wgt>
</rwgt>
</event>
<event>
 4      1 +7.8865000e-07 1.17011600e+03 7.81860800e-03 8.53731400e-02
        2 -1    0    0  501    0 +0.0000000000e+00 +0.0000000000e+00 +1.5618858275e+03 1.5618858275e+03 0.0000000000e+00 0.0000e+00 -1.0000e+00
       -2 -1    0    0    0  501 -0.0000000000e+00 -0.0000000000e+00 -2.1915353635e+02 2.1915353635e+02 0.0000000000e+00 0.0000e+00 1.0000e+00
      -13  1    1    2    0    0 -3.5110676465e+02 -1.5618204144e+02 -1.2895710949e-01 3.8427699239e+02 0.0000000000e+00 0.0000e+00 1.0000e+00
       13  1    1    2    0    0 +3.5110676465e+02 +1.5618204144e+02 +1.3428612483e+03 1.3967623715e+03 0.0000000000e+00 0.0000e+00 -1.0000e+00
<mgrwt>
<rscale>  0 0.11701159E+04</rscale>
<asrwt>0</asrwt>
<pdfrwt beam="1">  1        2 0.24029012E+00 0.11701159E+04</pdfrwt>
<pdfrwt beam="2">  1       -2 0.33715930E-01 0.11701159E+04</pdfrwt>
<totfact> 0.11607317E+02</totfact>
</mgrwt>
<rwgt>
<wgt id='morphing_basis_vector_1'> +2.2371287e-04 </wgt>
<wgt id='morphing_basis_vector_2'> +1.4319161e-04 </wgt>
<wgt id='morphing_basis_vector_3'> +2.2307650e-04 </wgt>
<wgt id='morphing_basis_vector_4'> +1.4279337e-04 </wgt>
<wgt id='morphing_basis_vector_5'> +2.2707740e-04 </wgt>
</rwgt>
</event>
<event>
 4      1 +7.8865000e-07 1.11307100e+03 7.81860800e-03 8.58359000e-02
        2 -1    0    0  501    0 +0.0000000000e+00 +0.0000000000e+00 +2.1711748660e+03 2.1711748660e+03 0.0000000000e+00 0.0000e+00 -1.0000e+00
       -2 -1    0    0    0  501 -0.0000000000e+00 -0.0000000000e+00 -1.4265636369e+02 1.4265636369e+02 0.0000000000e+00 0.0000e+00 1.0000e+00
      -13  1    1    2    0    0 +2.2631262167e+02 -4.6989964698e+02 +6.1058575374e+02 8.0301808425e+02 0.0000000000e+00 0.0000e+00 1.0000e+00
       13  1    1    2    0    0 -2.2631262167e+02 +4.6989964698e+02 +1.4179327486e+03 1.5108131454e+03 0.0000000000e+00 0.0000e+00 -1.0000e+00
<mgrwt>
<rscale>  0 0.11130713E+04</rscale>
<asrwt>0</asrwt>
<pdfrwt beam="1">  1        2 0.33402688E+00 0.11130713E+04</pdfrwt>
<pdfrwt beam="2">  1       -2 0.21947134E-01 0.11130713E+04</pdfrwt>
<totfact> 0.11290951E+02</totfact>
</mgrwt>
<rwgt>
<wgt id='morphing_basis_vector_1'> +1.8690283e-04 </wgt>
<wgt id='morphing_basis_vector_2'> +1.2255045e-04 </wgt>
<wgt id='morphing_basis_vector_3'> +1.8455494e-04 </wgt>
<wgt id='morphing_basis_vector_4'> +1.1297956e-04 </wgt>
<wgt id='morphing_basis_vector_5'> +1.8337890e-04 </wgt>
</rwgt>
</event>
<event>
 4      1 +7.8865000e-07 1.27540900e+03 7.81860800e-03 8.45877500e-02
        2 -1    0    0  501    0 +0.0000000000e+00 +0.0000000000e+00 +1.1756696942e+03 1.1756696942e+03 0.0000000000e+00 0.0000e+00 -1.0000e+00
       -2 -1    0    0    0  501 -0.0000000000e+00 -0.0000000000e+00 -3.4590228206e+02 3.4590228206e+02 0.0000000000e+00 0.0000e+00 1.0000e+00
      -13  1    1    2    0    0 +1.0036169393e+02 -4.0272755686e+02 -1.6271531741e+02 4.4580066082e+02 0.0000000000e+00 0.0000e+00 1.0000e+00
       13  1    1    2    0    0 -1.0036169393e+02 +4.0272755686e+02 +9.9248272954e+02 1.0757713154e+03 0.0000000000e+00 0.0000e+00 -1.0000e+00
<mgrwt>
<rscale>  0 0.12754087E+04</rscale>
<asrwt>0</asrwt>
<pdfrwt beam="1">  1        2 0.18087226E+00 0.12754087E+04</pdfrwt>
<pdfrwt beam="2">  1       -2 0.53215736E-01 0.12754087E+04</pdfrwt>
<totfact> 0.80433194E+01</totfact>
</mgrwt>
<rwgt>
<wgt id='morphing_basis_vector_1'> +3.1010589e-04 </wgt>
<wgt id='morphing_basis_vector_2'> +2.0034160e-04 </wgt>
<wgt id='morphing_basis_vector_3'> +3.1417095e-04 </wgt>
<wgt id='morphing_basis_vector_4'> +2.0527866e-04 </wgt>
<wgt id='morphing_basis_vector_5'> +3.2676894e-04 </wgt>
</rwgt>
</event>
<event>
 4      1 +7.8865000e-07 1.18708300e+03 7.81860800e-03 8.52408300e-02
        2 -1    0    0  501    0 +0.0000000000e+00 +0.0000000000e+00 +1.0681897807e+03 1.0681897807e+03 0.0000000000e+00 0.0000e+00 -1.0000e+00
       -2 -1    0    0    0  501 -0.0000000000e+00 -0.0000000000e+00 -3.2980245052e+02 3.2980245052e+02 0.0000000000e+00 0.0000e+00 1.0000e+00
      -13  1    1    2    0    0 -3.4812031129e+02 +4.4020124699e+02 +1.4166636235e+02 5.7882142946e+02 0.0000000000e+00 0.0000e+00 1.0000e+00
       13  1    1    2    0    0 +3.4812031129e+02 -4.4020124699e+02 +5.9672096783e+02 8.1917080174e+02 0.0000000000e+00 0.0000e+00 -1.0000e+00
<mgrwt>
<rscale>  0 0.11870832E+04</rscale>
<asrwt>0</asrwt>
<pdfrwt beam="1">  1        2 0.16433689E+00 0.11870832E+04</pdfrwt>
<pdfrwt beam="2">  1       -2 0.50738839E-01 0.11870832E+04</pdfrwt>
<totfact> 0.10313953E+02</totfact>
</mgrwt>
<rwgt>
<wgt id='morphing_basis_vector_1'> +2.3840135e-04 </wgt>
<wgt id='morphing_basis_vector_2'> +1.5802790e-04 </wgt>
<wgt id='morphing_basis_vector_3'> +2.3866053e-04 </wgt>
<wgt id='morphing_basis_vector_4'> +1.4801257e-04 </wgt>
<wgt id='morphing_basis_vector_5'> +2.4112266e-04 </wgt>
</rwgt>
</event>
<event>
 4      1 +7.8865000e-07 1.13536000e+03 7.81860800e-03 8.56516900e-02
        2 -1    0    0  501    0 +0.0000000000e+00 +0.0000000000e+00 +9.7384052999e+02 9.7384052999e+02 0.0000000000e+00 0.0000e+00 -1.0000e+00
       -2 -1    0    0    0  501 -0.0000000000e+00 -0.0000000000e+00 -3.3091723063e+02 3.3091723063e+02 0.0000000000e+00 0.0000e+00 1.0000e+00
      -13  1    1    2    0    0 +7.3556090330e+01 -5.3621337258e+02 +5.1825832077e+02 7.4935103016e+02 0.0000000000e+00 0.0000e+00 1.0000e+00
       13  1    1    2    0    0 -7.3556090330e+01 +5.3621337258e+02 +1.2466497860e+02 5.5540673046e+02 0.0000000000e+00 0.0000e+00 -1.0000e+00
<mgrwt>
<rscale>  0 0.11353601E+04</rscale>
<asrwt>0</asrwt>
<pdfrwt beam="1">  1        2 0.14982162E+00 0.11353601E+04</pdfrwt>
<pdfrwt beam="2">  1       -2 0.50910344E-01 0.11353601E+04</pdfrwt>
<totfact> 0.11761131E+02</totfact>
</mgrwt>
<rwgt>
<wgt id='morphing_basis_vector_1'> +2.1962633e-04 </wgt>
<wgt id='morphing_basis_vector_2'> +1.8736129e-04 </wgt>
<wgt id='morphing_basis_vector_3'> +2.1935723e-04 </wgt>
<wgt id='morphing_basis_vector_4'> +9.2406412e-05 </wgt>
<wgt id='morphing_basis_vector_5'> +1.9756176e-04 </wgt>
</rwgt>
</event>
<event>
 4      1 +7.8865000e-07 1.23259400e+03 7.81860800e-03 8.48971400e-02
        2 -1    0    0  501    0 +0.0000000000e+00 +0.0000000000e+00 +6.2837731114e+02 6.2837731114e+02 0.0000000000e+00 0.0000e+00 -1.0000e+00
       -2 -1    0    0    0  501 -0.0000000000e+00 -0.0000000000e+00 -6.0444910689e+02 6.0444910689e+02 0.0000000000e+00 0.0000e+00 1.0000e+00
      -13  1    1    2    0    0 -1.8603191015e+02 +5.8494050486e+02 +6.7281291537e+01 6.1748687274e+02 0.0000000000e+00 0.0000e+00 1.0000e+00
       13  1    1    2    0    0 +1.8603191015e+02 -5.8494050486e+02 -4.3353087287e+01 6.1533954529e+02 0.0000000000e+00 0.0000e+00 -1.0000e+00
<mgrwt>
<rscale>  0 0.12325942E+04</rscale>
<asrwt>0</asrwt>
<pdfrwt beam="1">  1        2 0.96673432E-01 0.12325942E+04</pdfrwt>
<pdfrwt beam="2">  1       -2 0.92992170E-01 0.12325942E+04</pdfrwt>
<totfact> 0.56152869E+01</totfact>
</mgrwt>
<rwgt>
<wgt id='morphing_basis_vector_1'> +2.8567402e-04 </wgt>
<wgt id='morphing_basis_vector_2'> +2.1526890e-04 </wgt>
<wgt id='morphing_basis_vector_3'> +2.8967619e-04 </wgt>
<wgt id='morphing_basis_vector_4'> +1.5473368e-04 </wgt>
<wgt id='morphing_basis_vector_5'> +2.8140803e-04 </wgt>
</rwgt>
</event>
<event>
 4      1 +7.8865000e-07 1.11169300e+03 7.81860800e-03 8.58474300e-02
        2 -1    0    0  501    0 +0.0000000000e+00 +0.0000000000e+00 +2.8012246323e+03 2.8012246323e+03 0.0000000000e+00 0.0000e+00 -1.0000e+00
       -2 -1    0    0    0  501 -0.0000000000e+00 -0.0000000000e+00 -1.1029661354e+02 1.1029661354e+02 0.0000000000e+00 0.0000e+00 1.0000e+00
      -13  1    1    2    0    0 +1.3336252827e+02 +5.1277329606e+02 +9.0532006257e+02 1.0489644574e+03 0.0000000000e+00 0.0000e+00 1.0000e+00
       13  1    1    2    0    0 -1.3336252827e+02 -5.1277329606e+02 +1.7856079562e+03 1.8625567885e+03 0.0000000000e+00 0.0000e+00 -1.0000e+00
<mgrwt>
<rscale>  0 0.11116935E+04</rscale>
<asrwt>0</asrwt>
<pdfrwt beam="1">  1        2 0.43095758E+00 0.11116935E+04</pdfrwt>
<pdfrwt beam="2">  1       -2 0.16968712E-01 0.11116935E+04</pdfrwt>
<totfact> 0.73656543E+01</totfact>
</mgrwt>
<rwgt>
<wgt id='morphing_basis_vector_1'> +1.8641192e-04 </wgt>
<wgt id='morphing_basis_vector_2'> +1.2309514e-04 </wgt>
<wgt id='morphing_basis_vector_3'> +1.8404424e-04 </wgt>
<wgt id='morphing_basis_vector_4'> +1.1176673e-04 </wgt>
<wgt id='morphing_basis_vector_5'> +1.8237096e-04 </wgt>
</rwgt>
</event>
<event>
 4      1 +7.8865000e-07 1.12009700e+03 7.81860800e-03 8.57773600e-02
        2 -1    0    0  501    0 +0.0000000000e+00 +0.0000000000e+00 +2.0236028547e+03 2.0236028547e+03 0.0000000000e+00 0.0000e+00 -1.0000e+00
       -2 -1    0    0    0  501 -0.0000000000e+00 -0.0000000000e+00 -1.5499799915e+02 1.5499799915e+02 0.0000000000e+00 0.0000e+00 1.0000e+00
      -13  1    1    2    0    0 +4.0735727893e+02 +3.2972996224e+02 +5.5023007691e+02 7.5987823908e+02 0.0000000000e+00 0.0000e+00 1.0000e+00
       13  1    1    2    0    0 -4.0735727893e+02 -3.2972996224e+02 +1.3183747787e+03 1.4187226148e+03 0.0000000000e+00 0.0000e+00 -1.0000e+00
<mgrwt>
<rscale>  0 0.11200971E+04</rscale>
<asrwt>0</asrwt>
<pdfrwt beam="1">  1        2 0.31132350E+00 0.11200971E+04</pdfrwt>
<pdfrwt beam="2">  1       -2 0.23845848E-01 0.11200971E+04</pdfrwt>
<totfact> 0.11864860E+02</totfact>
</mgrwt>
<rwgt>
<wgt id='morphing_basis_vector_1'> +1.9134032e-04 </wgt>
<wgt id='morphing_basis_vector_2'> +1.2548974e-04 </wgt>
<wgt id='morphing_basis_vector_3'> +1.8919896e-04 </wgt>
<wgt id='morphing_basis_vector_4'> +1.1608863e-04 </wgt>
<wgt id='morphing_basis_vector_5'> +1.8837586e-04 </wgt>
</rwgt>
</event>
<event>
 4      1 +7.8865000e-07 1.17515100e+03 7.81860800e-03 8.53336300e-02
        2 -1    0    0  501    0 +0.0000000000e+00 +0.0000000000e+00 +7.5809810871e+02 7.5809810871e+02 0.0000000000e+00 0.0000e+00 -1.0000e+00
       -2 -1    0    0    0  501 -0.0000000000e+00 -0.0000000000e+00 -4.5540898165e+02 4.5540898165e+02 0.0000000000e+00 0.0000e+00 1.0000e+00
      -13  1    1    2    0    0 -1.5823807424e+02 -3.4199114556e+02 -3.1420012836e+02 4.9063117761e+02 0.0000000000e+00 0.0000e+00 1.0000e+00
       13  1    1    2    0    0 +1.5823807424e+02 +3.4199114556e+02 +6.1688925542e+02 7.2287591275e+02 0.0000000000e+00 0.0000e+00 -1.0000e+00
<mgrwt>
<rscale>  0 0.11751505E+04</rscale>
<asrwt>0</asrwt>
<pdfrwt beam="1">  1        2 0.11663048E+00 0.11751505E+04</pdfrwt>
<pdfrwt beam="2">  1       -2 0.70062920E-01 0.11751505E+04</pdfrwt>
<totfact> 0.84996095E+01</totfact>
</mgrwt>
<rwgt>
<wgt id='morphing_basis_vector_1'> +2.2734601e-04 </wgt>
<wgt id='morphing_basis_vector_2'> +1.4554022e-04 </wgt>
<wgt id='morphing_basis_vector_3'> +2.2688950e-04 </wgt>
<wgt id='morphing_basis_vector_4'> +1.4544565e-04 </wgt>
<wgt id='morphing_basis_vector_5'> +2.3125533e-04 </wgt>
</rwgt>
</event>
<event>
 4      1 +7.8865000e-07 1.24141100e+03 7.81860800e-03 8.48323600e-02
        2 -1    0    0  501    0 +0.0000000000e+00 +0.0000000000e+00 +2.7277673017e+03 2.7277673017e+03 0.0000000000e+00 0.0000e+00 -1.0000e+00
       -2 -1    0    0    0  501 -0.0000000000e+00 -0.0000000000e+00 -1.4124189418e+02 1.4124189418e+02 0.0000000000e+00 0.0000e+00 1.0000e+00
      -13  1    1    2    0    0 -4.8714363040e+02 -2.1507071424e+02 +5.5620782954e+02 7.7002044025e+02 0.0000000000e+00 0.0000e+00 1.0000e+00
       13  1    1    2    0    0 +4.8714363040e+02 +2.1507071424e+02 +2.0303175780e+03 2.0989887556e+03 0.0000000000e+00 0.0000e+00 -1.0000e+00
<mgrwt>
<rscale>  0 0.12414105E+04</rscale>
<asrwt>0</asrwt>
<pdfrwt beam="1">  1        2 0.41965647E+00 0.12414105E+04</pdfrwt>
<pdfrwt beam="2">  1       -2 0.21729524E-01 0.12414105E+04</pdfrwt>
<totfact> 0.53455517E+01</totfact>
</mgrwt>
<rwgt>
<wgt id='morphing_basis_vector_1'> +2.8076570e-04 </wgt>
<wgt id='morphing_basis_vector_2'> +1.8307413e-04 </wgt>
<wgt id='morphing_basis_vector_3'> +2.8325051e-04 </wgt>
<wgt id='morphing_basis_vector_4'> +1.8163698e-04 </wgt>
<wgt id='morphing_basis_vector_5'> +2.9152201e-04 </wgt>
</rwgt>
</event>
<event>
 4      1 +7.8865000e-07 1.11134900e+03 7.81860800e-03 8.58503200e-02
        2 -1    0    0  501    0 +0.0000000000e+00 +0.0000000000e+00 +9.9677431976e+02 9.9677431976e+02 0.0000000000e+00 0.0000e+00 -1.0000e+00
       -2 -1    0    0    0  501 -0.0000000000e+00 -0.0000000000e+00 -3.0977327362e+02 3.0977327362e+02 0.0000000000e+00 0.0000e+00 1.0000e+00
      -13  1    1    2    0    0 -5.1629258932e+02 +1.9827585370e+02 +2.8016092047e+02 6.1996894544e+02 0.0000000000e+00 0.0000e+00 1.0000e+00
       13  1    1    2    0    0 +5.1629258932e+02 -1.9827585370e+02 +4.0684012567e+02 6.8657864794e+02 0.0000000000e+00 0.0000e+00 -1.0000e+00
<mgrwt>
<rscale>  0 0.11113488E+04</rscale>
<asrwt>0</asrwt>
<pdfrwt beam="1">  1        2 0.15334989E+00 0.11113488E+04</pdfrwt>
<pdfrwt beam="2">  1       -2 0.47657427E-01 0.11113488E+04</pdfrwt>
<totfact> 0.12966555E+02</totfact>
</mgrwt>
<rwgt>
<wgt id='morphing_basis_vector_1'> +1.8878595e-04 </wgt>
<wgt id='morphing_basis_vector_2'> +1.3075449e-04 </wgt>
<wgt id='morphing_basis_vector_3'> +1.8654673e-04 </wgt>
<wgt id='morphing_basis_vector_4'> +1.0734577e-04 </wgt>
<wgt id='morphing_basis_vector_5'> +1.8185268e-04 </wgt>
</rwgt>
</event>
<event>
 4      1 +7.8865000e-07 1.07032300e+03 7.81860800e-03 8.62019400e-02
        2 -1    0    0  501    0 +0.0000000000e+00 +0.0000000000e+00 +2.3868428884e+02 2.3868428884e+02 0.0000000000e+00 0.0000e+00 -1.0000e+00
       -2 -1    0    0    0  501 -0.0000000000e+00 -0.0000000000e+00 -1.1999031679e+03 1.1999031679e+03 0.0000000000e+00 0.0000e+00 1.0000e+00
      -13  1    1    2    0    0 +3.9994800408e+02 +2.7890219690e+02 -7.7707682986e+02 9.1738391141e+02 0.0000000000e+00 0.0000e+00 1.0000e+00
       13  1    1    2    0    0 -3.9994800408e+02 -2.7890219690e+02 -1.8414204925e+02 5.2120354537e+02 0.0000000000e+00 0.0000e+00 -1.0000e+00
<mgrwt>
<rscale>  0 0.10703234E+04</rscale>
<asrwt>0</asrwt>
<pdfrwt beam="1">  1        2 0.36720660E-01 0.10703234E+04</pdfrwt>
<pdfrwt beam="2">  1       -2 0.18460049E+00 0.10703234E+04</pdfrwt>
<totfact> 0.26582506E+01</totfact>
</mgrwt>
<rwgt>
<wgt id='morphing_basis_vector_1'> +1.6106587e-04 </wgt>
<wgt id='morphing_basis_vector_2'> +1.0423520e-04 </wgt>
<wgt id='morphing_basis_vector_3'> +1.5759839e-04 </wgt>
<wgt id='morphing_basis_vector_4'> +9.6194398e-05 </wgt>
<wgt id='morphing_basis_vector_5'> +1.5509469e-04 </wgt>
</rwgt>
</event>
<event>
 4      1 +7.8865000e-07 1.12695000e+03 7.81860800e-03 8.57206800e-02
        2 -1    0    0  501    0 +0.0000000000e+00 +0.0000000000e+00 +2.2803584477e+03 2.2803584477e+03 0.0000000000e+00 0.0000e+00 1.0000e+00
       -2 -1    0    0    0  501 -0.0000000000e+00 -0.0000000000e+00 -1.3923427330e+02 1.3923427330e+02 0.0000000000e+00 0.0000e+00 -1.0000e+00
      -13  1    1    2    0    0 -4.1468668429e+02 +1.6818346563e+02 +3.3537101351e+02 5.5921770442e+02 0.0000000000e+00 0.0000e+00 -1.0000e+00
       13  1    1    2    0    0 +4.1468668429e+02 -1.6818346563e+02 +1.8057531609e+03 1.8603750165e+03 0.0000000000e+00 0.0000e+00 1.0000e+00
<mgrwt>
<rscale>  0 0.11269500E+04</rscale>
<asrwt>0</asrwt>
<pdfrwt beam="1">  1        2 0.35082435E+00 0.11269500E+04</pdfrwt>
<pdfrwt beam="2">  1       -2 0.21420659E-01 0.11269500E+04</pdfrwt>
<totfact> 0.10182258E+02</totfact>
</mgrwt>
<rwgt>
<wgt id='morphing_basis_vector_1'> +1.9450117e-04 </wgt>
<wgt id='morphing_basis_vector_2'> +1.2465939e-04 </wgt>
<wgt id='morphing_basis_vector_3'> +1.9248279e-04 </wgt>
<wgt id='morphing_basis_vector_4'> +1.2125056e-04 </wgt>
<wgt id='morphing_basis_vector_5'> +1.9348066e-04 </wgt>
</rwgt>
</event>
<event>
 4      1 +7.8865000e-07 1.16022500e+03 7.81860800e-03 8.54513600e-02
        2 -1    0    0  501    0 +0.0000000000e+00 +0.0000000000e+00 +4.3928005318e+03 4.3928005318e+03 0.0000000000e+00 0.0000e+00 -1.0000e+00
       -2 -1    0    0    0  501 -0.0000000000e+00 -0.0000000000e+00 -7.6609537496e+01 7.6609537496e+01 0.0000000000e+00 0.0000e+00 1.0000e+00
      -13  1    1    2    0    0 +3.8557186824e+02 +4.1248623629e+02 +1.6453071541e+03 1.7394959592e+03 0.0000000000e+00 0.0000e+00 1.0000e+00
       13  1    1    2    0    0 -3.8557186824e+02 -4.1248623629e+02 +2.6708838402e+03 2.7299141101e+03 0.0000000000e+00 0.0000e+00 -1.0000e+00
<mgrwt>
<rscale>  0 0.11602248E+04</rscale>
<asrwt>0</asrwt>
<pdfrwt beam="1">  1        2 0.67581527E+00 0.11602248E+04</pdfrwt>
<pdfrwt beam="2">  1       -2 0.11786086E-01 0.11602248E+04</pdfrwt>
<totfact> 0.82195645E+00</totfact>
</mgrwt>
<rwgt>
<wgt id='morphing_basis_vector_1'> +2.1975247e-04 </wgt>
<wgt id='morphing_basis_vector_2'> +1.4782939e-04 </wgt>
<wgt id='morphing_basis_vector_3'> +2.1907367e-04 </wgt>
<wgt id='morphing_basis_vector_4'> +1.3254326e-04 </wgt>
<wgt id='morphing_basis_vector_5'> +2.1868914e-04 </wgt>
</rwgt>
</event>
<event>
 4      1 +7.8865000e-07 1.14994900e+03 7.81860800e-03 8.55335000e-02
        2 -1    0    0  501    0 +0.0000000000e+00 +0.0000000000e+00 +2.5671240501e+02 2.5671240501e+02 0.0000000000e+00 0.0000e+00 -1.0000e+00
       -2 -1    0    0    0  501 -0.0000000000e+00 -0.0000000000e+00 -1.2878061699e+03 1.2878061699e+03 0.0000000000e+00 0.0000e+00 1.0000e+00
      -13  1    1    2    0    0 +3.3005834947e+02 +3.2562562257e+02 -9.7225719770e+02 1.0771511587e+03 0.0000000000e+00 0.0000e+00 1.0000e+00
       13  1    1    2    0    0 -3.3005834947e+02 -3.2562562257e+02 -5.8836567189e+01 4.6736741624e+02 0.0000000000e+00 0.0000e+00 -1.0000e+00
<mgrwt>
<rscale>  0 0.11499492E+04</rscale>
<asrwt>0</asrwt>
<pdfrwt beam="1">  1        2 0.39494216E-01 0.11499492E+04</pdfrwt>
<pdfrwt beam="2">  1       -2 0.19812403E+00 0.11499492E+04</pdfrwt>
<totfact> 0.19294205E+01</totfact>
</mgrwt>
<rwgt>
<wgt id='morphing_basis_vector_1'> +2.0990743e-04 </wgt>
<wgt id='morphing_basis_vector_2'> +1.3498699e-04 </wgt>
<wgt id='morphing_basis_vector_3'> +2.0861502e-04 </wgt>
<wgt id='morphing_basis_vector_4'> +1.3201523e-04 </wgt>
<wgt id='morphing_basis_vector_5'> +2.1086304e-04 </wgt>
</rwgt>
</event>
<event>
 4      1 +7.8865000e-07 1.18834500e+03 7.81860800e-03 8.52310800e-02
        2 -1    0    0  501    0 +0.0000000000e+00 +0.0000000000e+00 +1.5572845202e+03 1.5572845202e+03 0.0000000000e+00 0.0000e+00 1.0000e+00
       -2 -1    0    0    0  501 -0.0000000000e+00 -0.0000000000e+00 -2.2670278415e+02 2.2670278415e+02 0.0000000000e+00 0.0000e+00 -1.0000e+00
      -13  1    1    2    0    0 +3.1480732226e+02 -3.7319980182e+02 +1.5695188297e+02 5.1285050043e+02 0.0000000000e+00 0.0000e+00 -1.0000e+00
       13  1    1    2    0    0 -3.1480732226e+02 +3.7319980182e+02 +1.1736298530e+03 1.2711368039e+03 0.0000000000e+00 0.0000e+00 1.0000e+00
<mgrwt>
<rscale>  0 0.11883446E+04</rscale>
<asrwt>0</asrwt>
<pdfrwt beam="1">  1        2 0.23958223E+00 0.11883446E+04</pdfrwt>
<pdfrwt beam="2">  1       -2 0.34877352E-01 0.11883446E+04</pdfrwt>
<totfact> 0.10966219E+02</totfact>
</mgrwt>
<rwgt>
<wgt id='morphing_basis_vector_1'> +2.3767951e-04 </wgt>
<wgt id='morphing_basis_vector_2'> +1.5363115e-04 </wgt>
<wgt id='morphing_basis_vector_3'> +2.3778545e-04 </wgt>
<wgt id='morphing_basis_vector_4'> +1.5154795e-04 </wgt>
<wgt id='morphing_basis_vector_5'> +2.4240376e-04 </wgt>
</rwgt>
</event>
<event>
 4      1 +7.8865000e-07 1.07058400e+03 7.81860800e-03 8.61996500e-02
        2 -1    0    0  501    0 +0.0000000000e+00 +0.0000000000e+00 +1.8921147887e+02 1.8921147887e+02 0.0000000000e+00 0.0000e+00 -1.0000e+00
       -2 -1    0    0    0  501 -0.0000000000e+00 -0.0000000000e+00 -1.5143780563e+03 1.5143780563e+03 0.0000000000e+00 0.0000e+00 1.0000e+00
      -13  1    1    2    0    0 +4.9493153718e+02 -1.7778516608e+02 -5.0367182139e+02 7.2818273492e+02 0.0000000000e+00 0.0000e+00 1.0000e+00
       13  1    1    2    0    0 -4.9493153718e+02 +1.7778516608e+02 -8.2149475605e+02 9.7540680026e+02 0.0000000000e+00 0.0000e+00 -1.0000e+00
<mgrwt>
<rscale>  0 0.10705843E+04</rscale>
<asrwt>0</asrwt>
<pdfrwt beam="1">  1        2 0.29109457E-01 0.10705843E+04</pdfrwt>
<pdfrwt beam="2">  1       -2 0.23298125E+00 0.10705843E+04</pdfrwt>
<totfact> 0.15551500E+01</totfact>
</mgrwt>
<rwgt>
<wgt id='morphing_basis_vector_1'> +1.7114290e-04 </wgt>
<wgt id='morphing_basis_vector_2'> +1.3430804e-04 </wgt>
<wgt id='morphing_basis_vector_3'> +1.6779947e-04 </wgt>
<wgt id='morphing_basis_vector_4'> +8.0262763e-05 </wgt>
<wgt id='morphing_basis_vector_5'> +1.5424584e-04 </wgt>
</rwgt>
</event>
<event>
 4      1 +7.8865000e-07 1.21306800e+03 7.81860800e-03 8.50426500e-02
        2 -1    0    0  501    0 +0.0000000000e+00 +0.0000000000e+00 +8.0924332850e+02 8.0924332850e+02 0.0000000000e+00 0.0000e+00 1.0000e+00
       -2 -1    0    0    0  501 -0.0000000000e+00 -0.0000000000e+00 -4.5460214789e+02 4.5460214789e+02 0.0000000000e+00 0.0000e+00 -1.0000e+00
      -13  1    1    2    0    0 -5.0063880879e+02 +6.5473514128e+01 -1.7283955022e+02 5.3366610164e+02 0.0000000000e+00 0.0000e+00 -1.0000e+00
       13  1    1    2    0    0 +5.0063880879e+02 -6.5473514128e+01 +5.2748073083e+02 7.3017937475e+02 0.0000000000e+00 0.0000e+00 1.0000e+00
<mgrwt>
<rscale>  0 0.12130684E+04</rscale>
<asrwt>0</asrwt>
<pdfrwt beam="1">  1        2 0.12449897E+00 0.12130684E+04</pdfrwt>
<pdfrwt beam="2">  1       -2 0.69938792E-01 0.12130684E+04</pdfrwt>
<totfact> 0.78284004E+01</totfact>
</mgrwt>
<rwgt>
<wgt id='morphing_basis_vector_1'> +2.5701104e-04 </wgt>
<wgt id='morphing_basis_vector_2'> +1.6667933e-04 </wgt>
<wgt id='morphing_basis_vector_3'> +2.5815124e-04 </wgt>
<wgt id='morphing_basis_vector_4'> +1.6517420e-04 </wgt>
<wgt id='morphing_basis_vector_5'> +2.6446659e-04 </wgt>
</rwgt>
</event>
<event>
 4      1 +7.8865000e-07 1.19769500e+03 7.81860800e-03 8.51592600e-02
        2 -1    0    0  501    0 +0.0000000000e+00 +0.0000000000e+00 +1.9384132634e+03 1.9384132634e+03 0.0000000000e+00 0.0000e+00 1.0000e+00
       -2 -1    0    0    0  501 -0.0000000000e+00 -0.0000000000e+00 -1.8500617210e+02 1.8500617210e+02 0.0000000000e+00 0.0000e+00 -1.0000e+00
      -13  1    1    2    0    0 +5.9675904549e+02 -4.6156214055e+01 +8.4275483791e+02 1.0336766764e+03 0.0000000000e+00 0.0000e+00 1.0000e+00
       13  1    1    2    0    0 -5.9675904549e+02 +4.6156214055e+01 +9.1065225340e+02 1.0897427591e+03 0.0000000000e+00 0.0000e+00 -1.0000e+00
<mgrwt>
<rscale>  0 0.11976951E+04</rscale>
<asrwt>0</asrwt>
<pdfrwt beam="1">  1        2 0.29821741E+00 0.11976951E+04</pdfrwt>
<pdfrwt beam="2">  1       -2 0.28462489E-01 0.11976951E+04</pdfrwt>
<totfact> 0.96812723E+01</totfact>
</mgrwt>
<rwgt>
<wgt id='morphing_basis_vector_1'> +2.5194209e-04 </wgt>
<wgt id='morphing_basis_vector_2'> +1.7976181e-04 </wgt>
<wgt id='morphing_basis_vector_3'> +2.5334577e-04 </wgt>
<wgt id='morphing_basis_vector_4'> +1.4445186e-04 </wgt>
<wgt id='morphing_basis_vector_5'> +2.4975880e-04 </wgt>
</rwgt>
</event>
<event>
 4      1 +7.8865000e-07 1.19917900e+03 7.81860800e-03 8.51479200e-02
        2 -1    0    0  501    0 +0.0000000000e+00 +0.0000000000e+00 +5.2405360966e+02 5.2405360966e+02 0.0000000000e+00 0.0000e+00 1.0000e+00
       -2 -1    0    0    0  501 -0.0000000000e+00 -0.0000000000e+00 -6.8601247612e+02 6.8601247612e+02 0.0000000000e+00 0.0000e+00 -1.0000e+00
      -13  1    1    2    0    0 +4.9012859410e+02 +3.4183380733e+02 -3.1227392369e+01 5.9837408084e+02 0.0000000000e+00 0.0000e+00 1.0000e+00
       13  1    1    2    0    0 -4.9012859410e+02 -3.4183380733e+02 -1.3073147409e+02 6.1169200494e+02 0.0000000000e+00 0.0000e+00 -1.0000e+00
<mgrwt>
<rscale>  0 0.11991786E+04</rscale>
<asrwt>0</asrwt>
<pdfrwt beam="1">  1        2 0.80623632E-01 0.11991786E+04</pdfrwt>
<pdfrwt beam="2">  1       -2 0.10554038E+00 0.11991786E+04</pdfrwt>
<totfact> 0.51334932E+01</totfact>
</mgrwt>
<rwgt>
<wgt id='morphing_basis_vector_1'> +2.5709614e-04 </wgt>
<wgt id='morphing_basis_vector_2'> +1.9255699e-04 </wgt>
<wgt id='morphing_basis_vector_3'> +2.5909329e-04 </wgt>
<wgt id='morphing_basis_vector_4'> +1.3839591e-04 </wgt>
<wgt id='morphing_basis_vector_5'> +2.5060843e-04 </wgt>
</rwgt>
</event>
<event>
 4      1 +7.8865000e-07 1.18036800e+03 7.81860800e-03 8.52929100e-02
        2 -1    0    0  501    0 +0.0000000000e+00 +0.0000000000e+00 +1.8775935773e+03 1.8775935773e+03 0.0000000000e+00 0.0000e+00 -1.0000e+00
       -2 -1    0    0    0  501 -0.0000000000e+00 -0.0000000000e+00 -1.8551256049e+02 1.8551256049e+02 0.0000000000e+00 0.0000e+00 1.0000e+00
      -13  1    1    2    0    0 +3.3731173996e+02 -2.7596582887e+02 +1.5044711928e+02 4.6105388440e+02 0.0000000000e+00 0.0000e+00 1.0000e+00
       13  1    1    2    0    0 -3.3731173996e+02 +2.7596582887e+02 +1.5416338975e+03 1.6020522534e+03 0.0000000000e+00 0.0000e+00 -1.0000e+00
<mgrwt>
<rscale>  0 0.11803681E+04</rscale>
<asrwt>0</asrwt>
<pdfrwt beam="1">  1        2 0.28886054E+00 0.11803681E+04</pdfrwt>
<pdfrwt beam="2">  1       -2 0.28540395E-01 0.11803681E+04</pdfrwt>
<totfact> 0.10430026E+02</totfact>
</mgrwt>
<rwgt>
<wgt id='morphing_basis_vector_1'> +2.3136864e-04 </wgt>
<wgt id='morphing_basis_vector_2'> +1.4863633e-04 </wgt>
<wgt id='morphing_basis_vector_3'> +2.3112679e-04 </wgt>
<wgt id='morphing_basis_vector_4'> +1.4787499e-04 </wgt>
<wgt id='morphing_basis_vector_5'> +2.3562042e-04 </wgt>
</rwgt>
</event>
<event>
 4      1 +7.8865000e-07 1.10244500e+03 7.81860800e-03 8.59252900e-02
        2 -1    0    0  501    0 +0.0000000000e+00 +0.0000000000e+00 +6.8199200744e+02 6.8199200744e+02 0.0000000000e+00 0.0000e+00 1.0000e+00
       -2 -1    0    0    0  501 -0.0000000000e+00 -0.0000000000e+00 -4.4552742720e+02 4.4552742720e+02 0.0000000000e+00 0.0000e+00 -1.0000e+00
      -13  1    1    2    0    0 +4.2991276060e+02 +2.7139585658e+02 +3.3606836136e+02 6.0944453087e+02 0.0000000000e+00 0.0000e+00 1.0000e+00
       13  1    1    2    0    0 -4.2991276060e+02 -2.7139585658e+02 -9.9603781119e+01 5.1807490377e+02 0.0000000000e+00 0.0000e+00 -1.0000e+00
<mgrwt>
<rscale>  0 0.11024448E+04</rscale>
<asrwt>0</asrwt>
<pdfrwt beam="1">  1        2 0.10492185E+00 0.11024448E+04</pdfrwt>
<pdfrwt beam="2">  1       -2 0.68542681E-01 0.11024448E+04</pdfrwt>
<totfact> 0.10206904E+02</totfact>
</mgrwt>
<rwgt>
<wgt id='morphing_basis_vector_1'> +2.0207590e-04 </wgt>
<wgt id='morphing_basis_vector_2'> +1.8372395e-04 </wgt>
<wgt id='morphing_basis_vector_3'> +2.0040087e-04 </wgt>
<wgt id='morphing_basis_vector_4'> +7.2701922e-05 </wgt>
<wgt id='morphing_basis_vector_5'> +1.7370746e-04 </wgt>
</rwgt>
</event>
<event>
 4      1 +7.8865000e-07 1.07941700e+03 7.81860800e-03 8.61226200e-02
        2 -1    0    0  501    0 +0.0000000000e+00 +0.0000000000e+00 +1.1082493368e+03 1.1082493368e+03 0.0000000000e+00 0.0000e+00 -1.0000e+00
       -2 -1    0    0    0  501 -0.0000000000e+00 -0.0000000000e+00 -2.6283350213e+02 2.6283350213e+02 0.0000000000e+00 0.0000e+00 1.0000e+00
      -13  1    1    2    0    0 +2.1177544645e+02 -3.4487516189e+02 -3.0842066780e+01 4.0588046281e+02 0.0000000000e+00 0.0000e+00 1.0000e+00
       13  1    1    2    0    0 -2.1177544645e+02 +3.4487516189e+02 +8.7625790141e+02 9.6520237608e+02 0.0000000000e+00 0.0000e+00 -1.0000e+00
<mgrwt>
<rscale>  0 0.10794166E+04</rscale>
<asrwt>0</asrwt>
<pdfrwt beam="1">  1        2 0.17049990E+00 0.10794166E+04</pdfrwt>
<pdfrwt beam="2">  1       -2 0.40435924E-01 0.10794166E+04</pdfrwt>
<totfact> 0.15192430E+02</totfact>
</mgrwt>
<rwgt>
<wgt id='morphing_basis_vector_1'> +1.6538851e-04 </wgt>
<wgt id='morphing_basis_vector_2'> +1.0514418e-04 </wgt>
<wgt id='morphing_basis_vector_3'> +1.6211539e-04 </wgt>
<wgt id='morphing_basis_vector_4'> +1.0110743e-04 </wgt>
<wgt id='morphing_basis_vector_5'> +1.6091848e-04 </wgt>
</rwgt>
</event>
<event>
 4      1 +7.8865000e-07 1.07819300e+03 7.81860800e-03 8.61332500e-02
        2 -1    0    0  501    0 +0.0000000000e+00 +0.0000000000e+00 +7.4948957371e+02 7.4948957371e+02 0.0000000000e+00 0.0000e+00 -1.0000e+00
       -2 -1    0    0    0  501 -0.0000000000e+00 -0.0000000000e+00 -3.8776385970e+02 3.8776385970e+02 0.0000000000e+00 0.0000e+00 1.0000e+00
      -13  1    1    2    0    0 +4.8503716443e+02 -1.1146403956e+02 -3.7706983380e+01 4.9910630089e+02 0.0000000000e+00 0.0000e+00 1.0000e+00
       13  1    1    2    0    0 -4.8503716443e+02 +1.1146403956e+02 +3.9943269739e+02 6.3814713252e+02 0.0000000000e+00 0.0000e+00 -1.0000e+00
<mgrwt>
<rscale>  0 0.10781929E+04</rscale>
<asrwt>0</asrwt>
<pdfrwt beam="1">  1        2 0.11530609E+00 0.10781929E+04</pdfrwt>
<pdfrwt beam="2">  1       -2 0.59655978E-01 0.10781929E+04</pdfrwt>
<totfact> 0.12153217E+02</totfact>
</mgrwt>
<rwgt>
<wgt id='morphing_basis_vector_1'> +1.6568563e-04 </wgt>
<wgt id='morphing_basis_vector_2'> +1.0769071e-04 </wgt>
<wgt id='morphing_basis_vector_3'> +1.6240434e-04 </wgt>
<wgt id='morphing_basis_vector_4'> +9.9003273e-05 </wgt>
<wgt id='morphing_basis_vector_5'> +1.6003461e-04 </wgt>
</rwgt>
</event>
<event>
 4      1 +7.8865000e-07 1.18394700e+03 7.81860800e-03 8.52651000e-02
        2 -1    0    0  501    0 +0.0000000000e+00 +0.0000000000e+00 +1.8830126555e+03 1.8830126555e+03 0.0000000000e+00 0.0000e+00 -1.0000e+00
       -2 -1    0    0    0  501 -0.0000000000e+00 -0.0000000000e+00 -1.8610226373e+02 1.8610226373e+02 0.0000000000e+00 0.0000e+00 1.0000e+00
      -13  1    1    2    0    0 -3.4599321666e+02 +4.4419735585e+02 +1.1678975463e+03 1.2965366464e+03 0.0000000000e+00 0.0000e+00 1.0000e+00
       13  1    1    2    0    0 +3.4599321666e+02 -4.4419735585e+02 +5.2901284551e+02 7.7257827283e+02 0.0000000000e+00 0.0000e+00 -1.0000e+00
<mgrwt>
<rscale>  0 0.11839475E+04</rscale>
<asrwt>0</asrwt>
<pdfrwt beam="1">  1        2 0.28969424E+00 0.11839475E+04</pdfrwt>
<pdfrwt beam="2">  1       -2 0.28631119E-01 0.11839475E+04</pdfrwt>
<totfact> 0.10297424E+02</totfact>
</mgrwt>
<rwgt>
<wgt id='morphing_basis_vector_1'> +2.5777804e-04 </wgt>
<wgt id='morphing_basis_vector_2'> +2.2177402e-04 </wgt>
<wgt id='morphing_basis_vector_3'> +2.6048686e-04 </wgt>
<wgt id='morphing_basis_vector_4'> +1.0929619e-04 </wgt>
<wgt id='morphing_basis_vector_5'> +2.3593915e-04 </wgt>
</rwgt>
</event>
<event>
 4      1 +7.8865000e-07 1.07075100e+03 7.81860800e-03 8.61981900e-02
        2 -1    0    0  501    0 +0.0000000000e+00 +0.0000000000e+00 +9.7601440261e+02 9.7601440261e+02 0.0000000000e+00 0.0000e+00 -1.0000e+00
       -2 -1    0    0    0  501 -0.0000000000e+00 -0.0000000000e+00 -2.9367098254e+02 2.9367098254e+02 0.0000000000e+00 0.0000e+00 1.0000e+00
      -13  1    1    2    0    0 -3.0805781530e+01 +5.1785299772e+02 +4.9806549248e+02 7.1915920228e+02 0.0000000000e+00 0.0000e+00 1.0000e+00
       13  1    1    2    0    0 +3.0805781530e+01 -5.1785299772e+02 +1.8427792759e+02 5.5052618287e+02 0.0000000000e+00 0.0000e+00 -1.0000e+00
<mgrwt>
<rscale>  0 0.10707513E+04</rscale>
<asrwt>0</asrwt>
<pdfrwt beam="1">  1        2 0.15015606E+00 0.10707513E+04</pdfrwt>
<pdfrwt beam="2">  1       -2 0.45180151E-01 0.10707513E+04</pdfrwt>
<totfact> 0.14849748E+02</totfact>
</mgrwt>
<rwgt>
<wgt id='morphing_basis_vector_1'> +1.7370321e-04 </wgt>
<wgt id='morphing_basis_vector_2'> +1.4181551e-04 </wgt>
<wgt id='morphing_basis_vector_3'> +1.7039513e-04 </wgt>
<wgt id='morphing_basis_vector_4'> +7.6343213e-05 </wgt>
<wgt id='morphing_basis_vector_5'> +1.5409844e-04 </wgt>
</rwgt>
</event>
<event>
 4      1 +7.8865000e-07 1.19673100e+03 7.81860800e-03 8.51666300e-02
        2 -1    0    0  501    0 +0.0000000000e+00 +0.0000000000e+00 +9.7774429972e+02 9.7774429972e+02 0.0000000000e+00 0.0000e+00 -1.0000e+00
       -2 -1    0    0    0  501 -0.0000000000e+00 -0.0000000000e+00 -3.6619125349e+02 3.6619125349e+02 0.0000000000e+00 0.0000e+00 1.0000e+00
      -13  1    1    2    0    0 -4.5130603495e+02 -3.5177180519e+02 +1.0926384028e+02 5.8254538613e+02 0.0000000000e+00 0.0000e+00 1.0000e+00
       13  1    1    2    0    0 +4.5130603495e+02 +3.5177180519e+02 +5.0228920595e+02 7.6139016708e+02 0.0000000000e+00 0.0000e+00 -1.0000e+00
<mgrwt>
<rscale>  0 0.11967312E+04</rscale>
<asrwt>0</asrwt>
<pdfrwt beam="1">  1        2 0.15042220E+00 0.11967312E+04</pdfrwt>
<pdfrwt beam="2">  1       -2 0.56337116E-01 0.11967312E+04</pdfrwt>
<totfact> 0.95129348E+01</totfact>
</mgrwt>
<rwgt>
<wgt id='morphing_basis_vector_1'> +2.4618432e-04 </wgt>
<wgt id='morphing_basis_vector_2'> +1.6420547e-04 </wgt>
<wgt id='morphing_basis_vector_3'> +2.4689679e-04 </wgt>
<wgt id='morphing_basis_vector_4'> +1.5251542e-04 </wgt>
<wgt id='morphing_basis_vector_5'> +2.4948859e-04 </wgt>
</rwgt>
</event>
<event>
 4      1 +7.8865000e-07 1.23178300e+03 7.81860800e-03 8.49031300e-02
        2 -1    0    0  501    0 +0.0000000000e+00 +0.0000000000e+00 +4.6551468725e+02 4.6551468725e+02 0.0000000000e+00 0.0000e+00 -1.0000e+00
       -2 -1    0    0    0  501 -0.0000000000e+00 -0.0000000000e+00 -8.1484554534e+02 8.1484554534e+02 0.0000000000e+00 0.0000e+00 1.0000e+00
      -13  1    1    2    0    0 -2.1224722045e+02 -5.0824863959e+02 +1.1180629449e+02 5.6201975919e+02 0.0000000000e+00 0.0000e+00 1.0000e+00
       13  1    1    2    0    0 +2.1224722045e+02 +5.0824863959e+02 -4.6113715258e+02 7.1834047340e+02 0.0000000000e+00 0.0000e+00 -1.0000e+00
<mgrwt>
<rscale>  0 0.12317834E+04</rscale>
<asrwt>0</asrwt>
<pdfrwt beam="1">  1        2 0.71617645E-01 0.12317834E+04</pdfrwt>
<pdfrwt beam="2">  1       -2 0.12536085E+00 0.12317834E+04</pdfrwt>
<totfact> 0.37769468E+01</totfact>
</mgrwt>
<rwgt>
<wgt id='morphing_basis_vector_1'> +3.1420193e-04 </wgt>
<wgt id='morphing_basis_vector_2'> +3.0246613e-04 </wgt>
<wgt id='morphing_basis_vector_3'> +3.2271443e-04 </wgt>
<wgt id='morphing_basis_vector_4'> +1.0353493e-04 </wgt>
<wgt id='morphing_basis_vector_5'> +2.7713821e-04 </wgt>
</rwgt>
</event>
<event>
 4      1 +7.8865000e-07 1.21354000e+03 7.81860800e-03 8.50391000e-02
        2 -1    0    0  501    0 +0.0000000000e+00 +0.0000000000e+00 +9.4902743481e+02 9.4902743481e+02 0.0000000000e+00 0.0000e+00 -1.0000e+00
       -2 -1    0    0    0  501 -0.0000000000e+00 -0.0000000000e+00 -3.8794432166e+02 3.8794432166e+02 0.0000000000e+00 0.0000e+00 1.0000e+00
      -13  1    1    2    0    0 -5.7416851120e+02 -1.6567729634e+02 +1.6472357540e+02 6.1988087732e+02 0.0000000000e+00 0.0000e+00 1.0000e+00
       13  1    1    2    0    0 +5.7416851120e+02 +1.6567729634e+02 +3.9635953775e+02 7.1709087914e+02 0.0000000000e+00 0.0000e+00 -1.0000e+00
<mgrwt>
<rscale>  0 0.12135400E+04</rscale>
<asrwt>0</asrwt>
<pdfrwt beam="1">  1        2 0.14600422E+00 0.12135400E+04</pdfrwt>
<pdfrwt beam="2">  1       -2 0.59683742E-01 0.12135400E+04</pdfrwt>
<totfact> 0.88100153E+01</totfact>
</mgrwt>
<rwgt>
<wgt id='morphing_basis_vector_1'> +2.6138886e-04 </wgt>
<wgt id='morphing_basis_vector_2'> +1.7893992e-04 </wgt>
<wgt id='morphing_basis_vector_3'> +2.6311818e-04 </wgt>
<wgt id='morphing_basis_vector_4'> +1.5854760e-04 </wgt>
<wgt id='morphing_basis_vector_5'> +2.6443081e-04 </wgt>
</rwgt>
</event>
<event>
 4      1 +7.8865000e-07 1.07328300e+03 7.81860800e-03 8.61760400e-02
        2 -1    0    0  501    0 +0.0000000000e+00 +0.0000000000e+00 +1.0409293577e+03 1.0409293577e+03 0.0000000000e+00 0.0000e+00 -1.0000e+00
       -2 -1    0    0    0  501 -0.0000000000e+00 -0.0000000000e+00 -2.7666041126e+02 2.7666041126e+02 0.0000000000e+00 0.0000e+00 1.0000e+00
      -13  1    1    2    0    0 -2.9643137782e+02 +4.3229974236e+02 +2.4093445185e+02 5.7689170482e+02 0.0000000000e+00 0.0000e+00 1.0000e+00
       13  1    1    2    0    0 +2.9643137782e+02 -4.3229974236e+02 +5.2333449457e+02 7.4069806413e+02 0.0000000000e+00 0.0000e+00 -1.0000e+00
<mgrwt>
<rscale>  0 0.10732827E+04</rscale>
<asrwt>0</asrwt>
<pdfrwt beam="1">  1        2 0.16014298E+00 0.10732827E+04</pdfrwt>
<pdfrwt beam="2">  1       -2 0.42563141E-01 0.10732827E+04</pdfrwt>
<totfact> 0.15159879E+02</totfact>
</mgrwt>
<rwgt>
<wgt id='morphing_basis_vector_1'> +1.6421552e-04 </wgt>
<wgt id='morphing_basis_vector_2'> +1.0982307e-04 </wgt>
<wgt id='morphing_basis_vector_3'> +1.6083782e-04 </wgt>
<wgt id='morphing_basis_vector_4'> +9.4941264e-05 </wgt>
<wgt id='morphing_basis_vector_5'> +1.5679354e-04 </wgt>
</rwgt>
</event>
<event>
 4      1 +7.8865000e-07 1.09782900e+03 7.81860800e-03 8.59644400e-02
        2 -1    0    0  501    0 +0.0000000000e+00 +0.0000000000e+00 +2.3480966202e+03 2.3480966202e+03 0.0000000000e+00 0.0000e+00 -1.0000e+00
       -2 -1    0    0    0  501 -0.0000000000e+00 -0.0000000000e+00 -1.2831981703e+02 1.2831981703e+02 0.0000000000e+00 0.0000e+00 1.0000e+00
      -13  1    1    2    0    0 +3.5357496913e+02 +2.5321601680e+02 +3.5438853227e+02 5.6100342402e+02 0.0000000000e+00 0.0000e+00 1.0000e+00
       13  1    1    2    0    0 -3.5357496913e+02 -2.5321601680e+02 +1.8653882709e+03 1.9154130132e+03 0.0000000000e+00 0.0000e+00 -1.0000e+00
<mgrwt>
<rscale>  0 0.10978294E+04</rscale>
<asrwt>0</asrwt>
<pdfrwt beam="1">  1        2 0.36124560E+00 0.10978294E+04</pdfrwt>
<pdfrwt beam="2">  1       -2 0.19741512E-01 0.10978294E+04</pdfrwt>
<totfact> 0.10702807E+02</totfact>
</mgrwt>
<rwgt>
<wgt id='morphing_basis_vector_1'> +1.7630685e-04 </wgt>
<wgt id='morphing_basis_vector_2'> +1.1261370e-04 </wgt>
<wgt id='morphing_basis_vector_3'> +1.7348436e-04 </wgt>
<wgt id='morphing_basis_vector_4'> +1.0847919e-04 </wgt>
<wgt id='morphing_basis_vector_5'> +1.7300440e-04 </wgt>
</rwgt>
</event>
<event>
 4      1 +7.8865000e-07 1.16786200e+03 7.81860800e-03 8.53908900e-02
        2 -1    0    0  501    0 +0.0000000000e+00 +0.0000000000e+00 +7.5827778158e+02 7.5827778158e+02 0.0000000000e+00 0.0000e+00 -1.0000e+00
       -2 -1    0    0    0  501 -0.0000000000e+00 -0.0000000000e+00 -4.4967058204e+02 4.4967058204e+02 0.0000000000e+00 0.0000e+00 1.0000e+00
      -13  1    1    2    0    0 -2.4631132517e+02 +3.5007944282e+02 -2.5650743769e+02 4.9901999036e+02 0.0000000000e+00 0.0000e+00 1.0000e+00
       13  1    1    2    0    0 +2.4631132517e+02 -3.5007944282e+02 +5.6511463724e+02 7.0892837326e+02 0.0000000000e+00 0.0000e+00 -1.0000e+00
<mgrwt>
<rscale>  0 0.11678617E+04</rscale>
<asrwt>0</asrwt>
<pdfrwt beam="1">  1        2 0.11665812E+00 0.11678617E+04</pdfrwt>
<pdfrwt beam="2">  1       -2 0.69180090E-01 0.11678617E+04</pdfrwt>
<totfact> 0.87353039E+01</totfact>
</mgrwt>
<rwgt>
<wgt id='morphing_basis_vector_1'> +2.2223741e-04 </wgt>
<wgt id='morphing_basis_vector_2'> +1.4256081e-04 </wgt>
<wgt id='morphing_basis_vector_3'> +2.2153610e-04 </wgt>
<wgt id='morphing_basis_vector_4'> +1.4138584e-04 </wgt>
<wgt id='morphing_basis_vector_5'> +2.2520938e-04 </wgt>
</rwgt>
</event>
<event>
 4      1 +7.8865000e-07 1.13201500e+03 7.81860800e-03 8.56790600e-02
        2 -1    0    0  501    0 +0.0000000000e+00 +0.0000000000e+00 +2.1483052011e+03 2.1483052011e+03 0.0000000000e+00 0.0000e+00 -1.0000e+00
       -2 -1    0    0    0  501 -0.0000000000e+00 -0.0000000000e+00 -1.4912431585e+02 1.4912431585e+02 0.0000000000e+00 0.0000e+00 1.0000e+00
      -13  1    1    2    0    0 -4.9502945989e+02 -2.7243695698e+02 +1.0665481442e+03 1.2069801181e+03 0.0000000000e+00 0.0000e+00 1.0000e+00
       13  1    1    2    0    0 +4.9502945989e+02 +2.7243695698e+02 +9.3263274105e+02 1.0904493988e+03 0.0000000000e+00 0.0000e+00 -1.0000e+00
<mgrwt>
<rscale>  0 0.11320151E+04</rscale>
<asrwt>0</asrwt>
<pdfrwt beam="1">  1        2 0.33050847E+00 0.11320151E+04</pdfrwt>
<pdfrwt beam="2">  1       -2 0.22942204E-01 0.11320151E+04</pdfrwt>
<totfact> 0.10773058E+02</totfact>
</mgrwt>
<rwgt>
<wgt id='morphing_basis_vector_1'> +2.0608368e-04 </wgt>
<wgt id='morphing_basis_vector_2'> +1.5177199e-04 </wgt>
<wgt id='morphing_basis_vector_3'> +2.0482263e-04 </wgt>
<wgt id='morphing_basis_vector_4'> +1.0978959e-04 </wgt>
<wgt id='morphing_basis_vector_5'> +1.9631182e-04 </wgt>
</rwgt>
</event>
<event>
 4      1 +7.8865000e-07 1.13817800e+03 7.81860800e-03 8.56287200e-02
        2 -1    0    0  501    0 +0.0000000000e+00 +0.0000000000e+00 +9.0429865652e+02 9.0429865652e+02 0.0000000000e+00 0.0000e+00 1.0000e+00
       -2 -1    0    0    0  501 -0.0000000000e+00 -0.0000000000e+00 -3.5813671976e+02 3.5813671976e+02 0.0000000000e+00 0.0000e+00 -1.0000e+00
      -13  1    1    2    0    0 -1.1664104326e+02 -1.1459140798e+02 -3.3152062662e+02 3.6965152459e+02 0.0000000000e+00 0.0000e+00 -1.0000e+00
       13  1    1    2    0    0 +1.1664104326e+02 +1.1459140798e+02 +8.7768256339e+02 8.9278385169e+02 0.0000000000e+00 0.0000e+00 1.0000e+00
<mgrwt>
<rscale>  0 0.11381785E+04</rscale>
<asrwt>0</asrwt>
<pdfrwt beam="1">  1        2 0.13912287E+00 0.11381785E+04</pdfrwt>
<pdfrwt beam="2">  1       -2 0.55097957E-01 0.11381785E+04</pdfrwt>
<totfact> 0.11134273E+02</totfact>
</mgrwt>
<rwgt>
<wgt id='morphing_basis_vector_1'> +2.0141368e-04 </wgt>
<wgt id='morphing_basis_vector_2'> +1.2812837e-04 </wgt>
<wgt id='morphing_basis_vector_3'> +1.9970046e-04 </wgt>
<wgt id='morphing_basis_vector_4'> +1.2725177e-04 </wgt>
<wgt id='morphing_basis_vector_5'> +2.0188432e-04 </wgt>
</rwgt>
</event>
<event>
 4      1 +7.8865000e-07 1.20126200e+03 7.81860800e-03 8.51320400e-02
        2 -1    0    0  501    0 +0.0000000000e+00 +0.0000000000e+00 +2.3832187547e+03 2.3832187547e+03 0.0000000000e+00 0.0000e+00 -1.0000e+00
       -2 -1    0    0    0  501 -0.0000000000e+00 -0.0000000000e+00 -1.5137405894e+02 1.5137405894e+02 0.0000000000e+00 0.0000e+00 1.0000e+00
      -13  1    1    2    0    0 -1.6299897753e+02 +3.6070874983e+02 +2.0690885737e+03 2.1066103091e+03 0.0000000000e+00 0.0000e+00 -1.0000e+00
       13  1    1    2    0    0 +1.6299897753e+02 -3.6070874983e+02 +1.6275612208e+02 4.2798250450e+02 0.0000000000e+00 0.0000e+00 1.0000e+00
<mgrwt>
<rscale>  0 0.12012618E+04</rscale>
<asrwt>0</asrwt>
<pdfrwt beam="1">  1        2 0.36664901E+00 0.12012618E+04</pdfrwt>
<pdfrwt beam="2">  1       -2 0.23288318E-01 0.12012618E+04</pdfrwt>
<totfact> 0.76585738E+01</totfact>
</mgrwt>
<rwgt>
<wgt id='morphing_basis_vector_1'> +3.2357986e-04 </wgt>
<wgt id='morphing_basis_vector_2'> +3.8846923e-04 </wgt>
<wgt id='morphing_basis_vector_3'> +3.3427874e-04 </wgt>
<wgt id='morphing_basis_vector_4'> +2.8198089e-05 </wgt>
<wgt id='morphing_basis_vector_5'> +2.4490796e-04 </wgt>
</rwgt>
</event>
<event>
 4      1 +7.8865000e-07 1.12121000e+03 7.81860800e-03 8.57681200e-02
        2 -1    0    0  501    0 +0.0000000000e+00 +0.0000000000e+00 +6.5283750891e+02 6.5283750891e+02 0.0000000000e+00 0.0000e+00 -1.0000e+00
       -2 -1    0    0    0  501 -0.0000000000e+00 -0.0000000000e+00 -4.8140320298e+02 4.8140320298e+02 0.0000000000e+00 0.0000e+00 1.0000e+00
      -13  1    1    2    0    0 -3.2487364164e+02 +3.9203176698e+02 -1.5162899084e+02 5.3124677902e+02 0.0000000000e+00 0.0000e+00 1.0000e+00
       13  1    1    2    0    0 +3.2487364164e+02 -3.9203176698e+02 +3.2306329678e+02 6.0299393287e+02 0.0000000000e+00 0.0000e+00 -1.0000e+00
<mgrwt>
<rscale>  0 0.11212102E+04</rscale>
<asrwt>0</asrwt>
<pdfrwt beam="1">  1        2 0.10043654E+00 0.11212102E+04</pdfrwt>
<pdfrwt beam="2">  1       -2 0.74062032E-01 0.11212102E+04</pdfrwt>
<totfact> 0.90940677E+01</totfact>
</mgrwt>
<rwgt>
<wgt id='morphing_basis_vector_1'> +1.9161093e-04 </wgt>
<wgt id='morphing_basis_vector_2'> +1.2463566e-04 </wgt>
<wgt id='morphing_basis_vector_3'> +1.8947524e-04 </wgt>
<wgt id='morphing_basis_vector_4'> +1.1731582e-04 </wgt>
<wgt id='morphing_basis_vector_5'> +1.8922406e-04 </wgt>
</rwgt>
</event>
<event>
 4      1 +7.8865000e-07 1.23623000e+03 7.81860800e-03 8.48703500e-02
        2 -1    0    0  501    0 +0.0000000000e+00 +0.0000000000e+00 +6.4545354538e+02 6.4545354538e+02 0.0000000000e+00 0.0000e+00 -1.0000e+00
       -2 -1    0    0    0  501 -0.0000000000e+00 -0.0000000000e+00 -5.9193469359e+02 5.9193469359e+02 0.0000000000e+00 0.0000e+00 1.0000e+00
      -13  1    1    2    0    0 -5.8556455373e+02 -1.3931763389e+02 -1.1398201009e+02 6.1260684646e+02 0.0000000000e+00 0.0000e+00 1.0000e+00
       13  1    1    2    0    0 +5.8556455373e+02 +1.3931763389e+02 +1.6750086188e+02 6.2478139251e+02 0.0000000000e+00 0.0000e+00 -1.0000e+00
<mgrwt>
<rscale>  0 0.12362303E+04</rscale>
<asrwt>0</asrwt>
<pdfrwt beam="1">  1        2 0.99300545E-01 0.12362303E+04</pdfrwt>
<pdfrwt beam="2">  1       -2 0.91066876E-01 0.12362303E+04</pdfrwt>
<totfact> 0.57100494E+01</totfact>
</mgrwt>
<rwgt>
<wgt id='morphing_basis_vector_1'> +2.7940518e-04 </wgt>
<wgt id='morphing_basis_vector_2'> +1.8929639e-04 </wgt>
<wgt id='morphing_basis_vector_3'> +2.8212635e-04 </wgt>
<wgt id='morphing_basis_vector_4'> +1.7314767e-04 </wgt>
<wgt id='morphing_basis_vector_5'> +2.8605987e-04 </wgt>
</rwgt>
</event>
<event>
 4      1 +7.8865000e-07 1.09489000e+03 7.81860800e-03 8.59894800e-02
        2 -1    0    0  501    0 +0.0000000000e+00 +0.0000000000e+00 +1.3697014231e+03 1.3697014231e+03 0.0000000000e+00 0.0000e+00 -1.0000e+00
       -2 -1    0    0    0  501 -0.0000000000e+00 -0.0000000000e+00 -2.1880393435e+02 2.1880393435e+02 0.0000000000e+00 0.0000e+00 1.0000e+00
      -13  1    1    2    0    0 -1.0295728774e+02 +4.0260266853e+02 +1.0924979938e+03 1.1688631136e+03 0.0000000000e+00 0.0000e+00 -1.0000e+00
       13  1    1    2    0    0 +1.0295728774e+02 -4.0260266853e+02 +5.8399494908e+01 4.1964224384e+02 0.0000000000e+00 0.0000e+00 1.0000e+00
<mgrwt>
<rscale>  0 0.10948901E+04</rscale>
<asrwt>0</asrwt>
<pdfrwt beam="1">  1        2 0.21072329E+00 0.10948901E+04</pdfrwt>
<pdfrwt beam="2">  1       -2 0.33662145E-01 0.10948901E+04</pdfrwt>
<totfact> 0.14994871E+02</totfact>
</mgrwt>
<rwgt>
<wgt id='morphing_basis_vector_1'> +2.1944377e-04 </wgt>
<wgt id='morphing_basis_vector_2'> +2.4683725e-04 </wgt>
<wgt id='morphing_basis_vector_3'> +2.1821558e-04 </wgt>
<wgt id='morphing_basis_vector_4'> +3.3802335e-05 </wgt>
<wgt id='morphing_basis_vector_5'> +1.6632075e-04 </wgt>
</rwgt>
</event>
<event>
 4      1 +7.8865000e-07 1.12032400e+03 7.81860800e-03 8.57754800e-02
        2 -1    0    0  501    0 +0.0000000000e+00 +0.0000000000e+00 +1.7734137089e+03 1.7734137089e+03 0.0000000000e+00 0.0000e+00 -1.0000e+00
       -2 -1    0    0    0  501 -0.0000000000e+00 -0.0000000000e+00 -1.7693626721e+02 1.7693626721e+02 0.0000000000e+00 0.0000e+00 1.0000e+00
      -13  1    1    2    0    0 -2.1159622973e+02 +4.9816070943e+02 +5.4689899588e+02 7.6943847613e+02 0.0000000000e+00 0.0000e+00 1.0000e+00
       13  1    1    2    0    0 +2.1159622973e+02 -4.9816070943e+02 +1.0495784458e+03 1.1809115000e+03 0.0000000000e+00 0.0000e+00 -1.0000e+00
<mgrwt>
<rscale>  0 0.11203235E+04</rscale>
<asrwt>0</asrwt>
<pdfrwt beam="1">  1        2 0.27283287E+00 0.11203235E+04</pdfrwt>
<pdfrwt beam="2">  1       -2 0.27220965E-01 0.11203235E+04</pdfrwt>
<totfact> 0.13003331E+02</totfact>
</mgrwt>
<rwgt>
<wgt id='morphing_basis_vector_1'> +1.9233345e-04 </wgt>
<wgt id='morphing_basis_vector_2'> +1.2814234e-04 </wgt>
<wgt id='morphing_basis_vector_3'> +1.9025160e-04 </wgt>
<wgt id='morphing_basis_vector_4'> +1.1478342e-04 </wgt>
<wgt id='morphing_basis_vector_5'> +1.8844693e-04 </wgt>
</rwgt>
</event>
<event>
 4      1 +7.8865000e-07 1.11382600e+03 7.81860800e-03 8.58295900e-02
        2 -1    0    0  501    0 +0.0000000000e+00 +0.0000000000e+00 +1.9806004499e+03 1.9806004499e+03 0.0000000000e+00 0.0000e+00 -1.0000e+00
       -2 -1    0    0    0  501 -0.0000000000e+00 -0.0000000000e+00 -1.5659508736e+02 1.5659508736e+02 0.0000000000e+00 0.0000e+00 1.0000e+00
      -13  1    1    2    0    0 +5.5434739285e+02 -2.0581277177e+01 +1.0065441708e+03 1.1492849032e+03 0.0000000000e+00 0.0000e+00 1.0000e+00
       13  1    1    2    0    0 -5.5434739285e+02 +2.0581277177e+01 +8.1746119177e+02 9.8791063410e+02 0.0000000000e+00 0.0000e+00 -1.0000e+00
<mgrwt>
<rscale>  0 0.11138264E+04</rscale>
<asrwt>0</asrwt>
<pdfrwt beam="1">  1        2 0.30470774E+00 0.11138264E+04</pdfrwt>
<pdfrwt beam="2">  1       -2 0.24091553E-01 0.11138264E+04</pdfrwt>
<totfact> 0.12327682E+02</totfact>
</mgrwt>
<rwgt>
<wgt id='morphing_basis_vector_1'> +1.9483739e-04 </wgt>
<wgt id='morphing_basis_vector_2'> +1.4534673e-04 </wgt>
<wgt id='morphing_basis_vector_3'> +1.9292838e-04 </wgt>
<wgt id='morphing_basis_vector_4'> +1.0098689e-04 </wgt>
<wgt id='morphing_basis_vector_5'> +1.8311174e-04 </wgt>
</rwgt>
</event>
<event>
 4      1 +7.8865000e-07 1.12559800e+03 7.81860800e-03 8.57318300e-02
        2 -1    0    0  501    0 +0.0000000000e+00 +0.0000000000e+00 +5.6621664250e+02 5.6621664250e+02 0.0000000000e+00 0.0000e+00 1.0000e+00
       -2 -1    0    0    0  501 -0.0000000000e+00 -0.0000000000e+00 -5.5940202300e+02 5.5940202300e+02 0.0000000000e+00 0.0000e+00 -1.0000e+00
      -13  1    1    2    0    0 -1.8467256462e+02 +5.1689366685e+02 -1.2093207651e+02 5.6205656840e+02 0.0000000000e+00 0.0000e+00 -1.0000e+00
       13  1    1    2    0    0 +1.8467256462e+02 -5.1689366685e+02 +1.2774669600e+02 5.6356209710e+02 0.0000000000e+00 0.0000e+00 1.0000e+00
<mgrwt>
<rscale>  0 0.11255980E+04</rscale>
<asrwt>0</asrwt>
<pdfrwt beam="1">  1        2 0.87110252E-01 0.11255980E+04</pdfrwt>
<pdfrwt beam="2">  1       -2 0.86061850E-01 0.11255980E+04</pdfrwt>
<totfact> 0.76664975E+01</totfact>
</mgrwt>
<rwgt>
<wgt id='morphing_basis_vector_1'> +1.9617442e-04 </wgt>
<wgt id='morphing_basis_vector_2'> +1.3175503e-04 </wgt>
<wgt id='morphing_basis_vector_3'> +1.9428709e-04 </wgt>
<wgt id='morphing_basis_vector_4'> +1.1640085e-04 </wgt>
<wgt id='morphing_basis_vector_5'> +1.9221601e-04 </wgt>
</rwgt>
</event>
<event>
 4      1 +7.8865000e-07 1.12102300e+03 7.81860800e-03 8.57696800e-02
        2 -1    0    0  501    0 +0.0000000000e+00 +0.0000000000e+00 +1.7928589699e+03 1.7928589699e+03 0.0000000000e+00 0.0000e+00 1.0000e+00
       -2 -1    0    0    0  501 -0.0000000000e+00 -0.0000000000e+00 -1.7523583695e+02 1.7523583695e+02 0.0000000000e+00 0.0000e+00 -1.0000e+00
      -13  1    1    2    0    0 +1.4853144326e+02 +3.7418790658e+02 +1.2412957090e+02 4.2129126438e+02 0.0000000000e+00 0.0000e+00 -1.0000e+00
       13  1    1    2    0    0 -1.4853144326e+02 -3.7418790658e+02 +1.4934935620e+03 1.5468035424e+03 0.0000000000e+00 0.0000e+00 1.0000e+00
<mgrwt>
<rscale>  0 0.11210230E+04</rscale>
<asrwt>0</asrwt>
<pdfrwt beam="1">  1        2 0.27582444E+00 0.11210230E+04</pdfrwt>
<pdfrwt beam="2">  1       -2 0.26959361E-01 0.11210230E+04</pdfrwt>
<totfact> 0.12899511E+02</totfact>
</mgrwt>
<rwgt>
<wgt id='morphing_basis_vector_1'> +1.9048237e-04 </wgt>
<wgt id='morphing_basis_vector_2'> +1.2151705e-04 </wgt>
<wgt id='morphing_basis_vector_3'> +1.8827779e-04 </wgt>
<wgt id='morphing_basis_vector_4'> +1.1890422e-04 </wgt>
<wgt id='morphing_basis_vector_5'> +1.8919817e-04 </wgt>
</rwgt>
</event>
<event>
 4      1 +7.8865000e-07 1.15783000e+03 7.81860800e-03 8.54704200e-02
        2 -1    0    0  501    0 +0.0000000000e+00 +0.0000000000e+00 +4.8496824657e+02 4.8496824657e+02 0.0000000000e+00 0.0000e+00 1.0000e+00
       -2 -1    0    0    0  501 -0.0000000000e+00 -0.0000000000e+00 -6.9106111015e+02 6.9106111015e+02 0.0000000000e+00 0.0000e+00 -1.0000e+00
      -13  1    1    2    0    0 -3.4847323373e+01 +3.1256602788e+02 -5.9672194130e+02 6.7452867467e+02 0.0000000000e+00 0.0000e+00 -1.0000e+00
       13  1    1    2    0    0 +3.4847323373e+01 -3.1256602788e+02 +3.9062907772e+02 5.0150068205e+02 0.0000000000e+00 0.0000e+00 1.0000e+00
<mgrwt>
<rscale>  0 0.11578302E+04</rscale>
<asrwt>0</asrwt>
<pdfrwt beam="1">  1        2 0.74610500E-01 0.11578302E+04</pdfrwt>
<pdfrwt beam="2">  1       -2 0.10631709E+00 0.11578302E+04</pdfrwt>
<totfact> 0.55262689E+01</totfact>
</mgrwt>
<rwgt>
<wgt id='morphing_basis_vector_1'> +2.1488140e-04 </wgt>
<wgt id='morphing_basis_vector_2'> +1.3712372e-04 </wgt>
<wgt id='morphing_basis_vector_3'> +2.1380713e-04 </wgt>
<wgt id='morphing_basis_vector_4'> +1.3672777e-04 </wgt>
<wgt id='morphing_basis_vector_5'> +2.1713255e-04 </wgt>
</rwgt>
</event>
<event>
 4      1 +7.8865000e-07 1.09090900e+03 7.81860800e-03 8.60235100e-02
        2 -1    0    0  501    0 +0.0000000000e+00 +0.0000000000e+00 +1.9134339495e+02 1.9134339495e+02 0.0000000000e+00 0.0000e+00 1.0000e+00
       -2 -1    0    0    0  501 -0.0000000000e+00 -0.0000000000e+00 -1.5549043847e+03 1.5549043847e+03 0.0000000000e+00 0.0000e+00 -1.0000e+00
      -13  1    1    2    0    0 +4.8254650802e+02 +2.4449525343e+02 -5.6982542802e+02 7.8570355718e+02 0.0000000000e+00 0.0000e+00 -1.0000e+00
       13  1    1    2    0    0 -4.8254650802e+02 -2.4449525343e+02 -7.9373556172e+02 9.6054422245e+02 0.0000000000e+00 0.0000e+00 1.0000e+00
<mgrwt>
<rscale>  0 0.10909091E+04</rscale>
<asrwt>0</asrwt>
<pdfrwt beam="1">  1        2 0.29437446E-01 0.10909091E+04</pdfrwt>
<pdfrwt beam="2">  1       -2 0.23921605E+00 0.10909091E+04</pdfrwt>
<totfact> 0.13865844E+01</totfact>
</mgrwt>
<rwgt>
<wgt id='morphing_basis_vector_1'> +1.8148054e-04 </wgt>
<wgt id='morphing_basis_vector_2'> +1.3793008e-04 </wgt>
<wgt id='morphing_basis_vector_3'> +1.7879230e-04 </wgt>
<wgt id='morphing_basis_vector_4'> +9.0417160e-05 </wgt>
<wgt id='morphing_basis_vector_5'> +1.6741159e-04 </wgt>
</rwgt>
</event>
<event>
 4      1 +7.8865000e-07 1.12820400e+03 7.81860800e-03 8.57103500e-02
        2 -1    0    0  501    0 +0.0000000000e+00 +0.0000000000e+00 +2.1222727179e+02 2.1222727179e+02 0.0000000000e+00 0.0000e+00 1.0000e+00
       -2 -1    0    0    0  501 -0.0000000000e+00 -0.0000000000e+00 -1.4993894080e+03 1.4993894080e+03 0.0000000000e+00 0.0000e+00 -1.0000e+00
      -13  1    1    2    0    0 +4.6147351039e+01 +3.3798673807e+02 -1.3251809984e+03 1.3683819977e+03 0.0000000000e+00 0.0000e+00 -1.0000e+00
       13  1    1    2    0    0 -4.6147351039e+01 -3.3798673807e+02 +3.8018862179e+01 3.4323468211e+02 0.0000000000e+00 0.0000e+00 1.0000e+00
<mgrwt>
<rscale>  0 0.11282045E+04</rscale>
<asrwt>0</asrwt>
<pdfrwt beam="1">  1        2 0.32650349E-01 0.11282045E+04</pdfrwt>
<pdfrwt beam="2">  1       -2 0.23067530E+00 0.11282045E+04</pdfrwt>
<totfact> 0.14065586E+01</totfact>
</mgrwt>
<rwgt>
<wgt id='morphing_basis_vector_1'> +1.9495561e-04 </wgt>
<wgt id='morphing_basis_vector_2'> +1.2411401e-04 </wgt>
<wgt id='morphing_basis_vector_3'> +1.9294951e-04 </wgt>
<wgt id='morphing_basis_vector_4'> +1.2242394e-04 </wgt>
<wgt id='morphing_basis_vector_5'> +1.9444011e-04 </wgt>
</rwgt>
</event>
<event>
 4      1 +7.8865000e-07 1.09326100e+03 7.81860800e-03 8.60033800e-02
        2 -1    0    0  501    0 +0.0000000000e+00 +0.0000000000e+00 +8.7363258734e+02 8.7363258734e+02 0.0000000000e+00 0.0000e+00 1.0000e+00
       -2 -1    0    0    0  501 -0.0000000000e+00 -0.0000000000e+00 -3.4202601531e+02 3.4202601531e+02 0.0000000000e+00 0.0000e+00 -1.0000e+00
      -13  1    1    2    0    0 -6.4479385314e+01 -2.6362514731e+02 -2.6181873624e+02 3.7710059676e+02 0.0000000000e+00 0.0000e+00 -1.0000e+00
       13  1    1    2    0    0 +6.4479385314e+01 +2.6362514731e+02 +7.9342530827e+02 8.3855800589e+02 0.0000000000e+00 0.0000e+00 1.0000e+00
<mgrwt>
<rscale>  0 0.10932613E+04</rscale>
<asrwt>0</asrwt>
<pdfrwt beam="1">  1        2 0.13440501E+00 0.10932613E+04</pdfrwt>
<pdfrwt beam="2">  1       -2 0.52619387E-01 0.10932613E+04</pdfrwt>
<totfact> 0.12826660E+02</totfact>
</mgrwt>
<rwgt>
<wgt id='morphing_basis_vector_1'> +1.7320939e-04 </wgt>
<wgt id='morphing_basis_vector_2'> +1.0970313e-04 </wgt>
<wgt id='morphing_basis_vector_3'> +1.7025843e-04 </wgt>
<wgt id='morphing_basis_vector_4'> +1.0716826e-04 </wgt>
<wgt id='morphing_basis_vector_5'> +1.6998144e-04 </wgt>
</rwgt>
</event>
<event>
 4      1 +7.8865000e-07 1.17429300e+03 7.81860800e-03 8.53403500e-02
        2 -1    0    0  501    0 +0.0000000000e+00 +0.0000000000e+00 +1.0698150471e+03 1.0698150471e+03 0.0000000000e+00 0.0000e+00 1.0000e+00
       -2 -1    0    0    0  501 -0.0000000000e+00 -0.0000000000e+00 -3.2224355216e+02 3.2224355216e+02 0.0000000000e+00 0.0000e+00 -1.0000e+00
      -13  1    1    2    0    0 -2.7657310543e+02 +2.4644507690e+02 +9.1379830136e+02 9.8603001685e+02 0.0000000000e+00 0.0000e+00 1.0000e+00
       13  1    1    2    0    0 +2.7657310543e+02 -2.4644507690e+02 -1.6622680641e+02 4.0602858242e+02 0.0000000000e+00 0.0000e+00 -1.0000e+00
<mgrwt>
<rscale>  0 0.11742930E+04</rscale>
<asrwt>0</asrwt>
<pdfrwt beam="1">  1        2 0.16458693E+00 0.11742930E+04</pdfrwt>
<pdfrwt beam="2">  1       -2 0.49575931E-01 0.11742930E+04</pdfrwt>
<totfact> 0.10779521E+02</totfact>
</mgrwt>
<rwgt>
<wgt id='morphing_basis_vector_1'> +2.9924502e-04 </wgt>
<wgt id='morphing_basis_vector_2'> +3.6317490e-04 </wgt>
<wgt id='morphing_basis_vector_3'> +3.0677020e-04 </wgt>
<wgt id='morphing_basis_vector_4'> +2.1860131e-05 </wgt>
<wgt id='morphing_basis_vector_5'> +2.2228790e-04 </wgt>
</rwgt>
</event>
<event>
 4      1 +7.8865000e-07 1.18962100e+03 7.81860800e-03 8.52212400e-02
        2 -1    0    0  501    0 +0.0000000000e+00 +0.0000000000e+00 +9.8456343736e+02 9.8456343736e+02 0.0000000000e+00 0.0000e+00 -1.0000e+00
       -2 -1    0    0    0  501 -0.0000000000e+00 -0.0000000000e+00 -3.5934659016e+02 3.5934659016e+02 0.0000000000e+00 0.0000e+00 1.0000e+00
      -13  1    1    2    0    0 +4.4175447116e+02 -1.3155910228e+02 -1.1211024687e+02 4.7436643814e+02 0.0000000000e+00 0.0000e+00 1.0000e+00
       13  1    1    2    0    0 -4.4175447116e+02 +1.3155910228e+02 +7.3732709408e+02 8.6954358939e+02 0.0000000000e+00 0.0000e+00 -1.0000e+00
<mgrwt>
<rscale>  0 0.11896210E+04</rscale>
<asrwt>0</asrwt>
<pdfrwt beam="1">  1        2 0.15147130E+00 0.11896210E+04</pdfrwt>
<pdfrwt beam="2">  1       -2 0.55284091E-01 0.11896210E+04</pdfrwt>
<totfact> 0.97898960E+01</totfact>
</mgrwt>
<rwgt>
<wgt id='morphing_basis_vector_1'> +2.3841835e-04 </wgt>
<wgt id='morphing_basis_vector_2'> +1.5359092e-04 </wgt>
<wgt id='morphing_basis_vector_3'> +2.3854660e-04 </wgt>
<wgt id='morphing_basis_vector_4'> +1.5262510e-04 </wgt>
<wgt id='morphing_basis_vector_5'> +2.4353497e-04 </wgt>
</rwgt>
</event>
<event>
 4      1 +7.8865000e-07 1.08982200e+03 7.81860800e-03 8.60328300e-02
        2 -1    0    0  501    0 +0.0000000000e+00 +0.0000000000e+00 +2.5958420019e+03 2.5958420019e+03 0.0000000000e+00 0.0000e+00 -1.0000e+00
       -2 -1    0    0    0  501 -0.0000000000e+00 -0.0000000000e+00 -1.1438606832e+02 1.1438606832e+02 0.0000000000e+00 0.0000e+00 1.0000e+00
      -13  1    1    2    0    0 +3.5106626948e+02 +1.5299025316e+02 +2.7669260413e+02 4.7245353243e+02 0.0000000000e+00 0.0000e+00 1.0000e+00
       13  1    1    2    0    0 -3.5106626948e+02 -1.5299025316e+02 +2.2047633294e+03 2.2377745378e+03 0.0000000000e+00 0.0000e+00 -1.0000e+00
<mgrwt>
<rscale>  0 0.10898223E+04</rscale>
<asrwt>0</asrwt>
<pdfrwt beam="1">  1        2 0.39936026E+00 0.10898223E+04</pdfrwt>
<pdfrwt beam="2">  1       -2 0.17597859E-01 0.10898223E+04</pdfrwt>
<totfact> 0.92709650E+01</totfact>
</mgrwt>
<rwgt>
<wgt id='morphing_basis_vector_1'> +1.7133905e-04 </wgt>
<wgt id='morphing_basis_vector_2'> +1.0885345e-04 </wgt>
<wgt id='morphing_basis_vector_3'> +1.6830956e-04 </wgt>
<wgt id='morphing_basis_vector_4'> +1.0547795e-04 </wgt>
<wgt id='morphing_basis_vector_5'> +1.6768584e-04 </wgt>
</rwgt>
</event>
<event>
 4      1 +7.8865000e-07 1.18341600e+03 7.81860800e-03 8.52692300e-02
        2 -1    0    0  501    0 +0.0000000000e+00 +0.0000000000e+00 +3.2723666261e+02 3.2723666261e+02 0.0000000000e+00 0.0000e+00 1.0000e+00
       -2 -1    0    0    0  501 -0.0000000000e+00 -0.0000000000e+00 -1.0699238338e+03 1.0699238338e+03 0.0000000000e+00 0.0000e+00 -1.0000e+00
      -13  1    1    2    0    0 -1.6007895042e+02 -5.0598232495e+02 -6.8028395669e+02 8.6280336419e+02 0.0000000000e+00 0.0000e+00 -1.0000e+00
       13  1    1    2    0    0 +1.6007895042e+02 +5.0598232495e+02 -6.2403214465e+01 5.3435713218e+02 0.0000000000e+00 0.0000e+00 1.0000e+00
<mgrwt>
<rscale>  0 0.11834159E+04</rscale>
<asrwt>0</asrwt>
<pdfrwt beam="1">  1        2 0.50344102E-01 0.11834159E+04</pdfrwt>
<pdfrwt beam="2">  1       -2 0.16460367E+00 0.11834159E+04</pdfrwt>
<totfact> 0.26281124E+01</totfact>
</mgrwt>
<rwgt>
<wgt id='morphing_basis_vector_1'> +2.3465420e-04 </wgt>
<wgt id='morphing_basis_vector_2'> +1.5320421e-04 </wgt>
<wgt id='morphing_basis_vector_3'> +2.3464834e-04 </wgt>
<wgt id='morphing_basis_vector_4'> +1.4775512e-04 </wgt>
<wgt id='morphing_basis_vector_5'> +2.3809364e-04 </wgt>
</rwgt>
</event>
<event>
 4      1 +7.8865000e-07 1.11728800e+03 7.81860800e-03 8.58007100e-02
        2 -1    0    0  501    0 +0.0000000000e+00 +0.0000000000e+00 +7.4684845040e+02 7.4684845040e+02 0.0000000000e+00 0.0000e+00 -1.0000e+00
       -2 -1    0    0    0  501 -0.0000000000e+00 -0.0000000000e+00 -4.1786662931e+02 4.1786662931e+02 0.0000000000e+00 0.0000e+00 1.0000e+00
      -13  1    1    2    0    0 -9.1247042039e+01 +3.2055406039e+02 -3.0287273861e+02 4.5034744821e+02 0.0000000000e+00 0.0000e+00 1.0000e+00
       13  1    1    2    0    0 +9.1247042039e+01 -3.2055406039e+02 +6.3185455971e+02 7.1436763150e+02 0.0000000000e+00 0.0000e+00 -1.0000e+00
<mgrwt>
<rscale>  0 0.11172879E+04</rscale>
<asrwt>0</asrwt>
<pdfrwt beam="1">  1        2 0.11489976E+00 0.11172879E+04</pdfrwt>
<pdfrwt beam="2">  1       -2 0.64287174E-01 0.11172879E+04</pdfrwt>
<totfact> 0.10432191E+02</totfact>
</mgrwt>
<rwgt>
<wgt id='morphing_basis_vector_1'> +1.8796100e-04 </wgt>
<wgt id='morphing_basis_vector_2'> +1.1950141e-04 </wgt>
<wgt id='morphing_basis_vector_3'> +1.8564176e-04 </wgt>
<wgt id='morphing_basis_vector_4'> +1.1747761e-04 </wgt>
<wgt id='morphing_basis_vector_5'> +1.8653759e-04 </wgt>
</rwgt>
</event>
<event>
 4      1 +7.8865000e-07 1.15441700e+03 7.81860800e-03 8.54976800e-02
        2 -1    0    0  501    0 +0.0000000000e+00 +0.0000000000e+00 +1.3936368653e+03 1.3936368653e+03 0.0000000000e+00 0.0000e+00 1.0000e+00
       -2 -1    0    0    0  501 -0.0000000000e+00 -0.0000000000e+00 -2.3906492514e+02 2.3906492514e+02 0.0000000000e+00 0.0000e+00 -1.0000e+00
      -13  1    1    2    0    0 +1.8501409996e+02 -5.2064604618e+02 +8.1338302238e+02 9.8330791906e+02 0.0000000000e+00 0.0000e+00 -1.0000e+00
       13  1    1    2    0    0 -1.8501409996e+02 +5.2064604618e+02 +3.4118891779e+02 6.4939387140e+02 0.0000000000e+00 0.0000e+00 1.0000e+00
<mgrwt>
<rscale>  0 0.11544171E+04</rscale>
<asrwt>0</asrwt>
<pdfrwt beam="1">  1        2 0.21440567E+00 0.11544171E+04</pdfrwt>
<pdfrwt beam="2">  1       -2 0.36779220E-01 0.11544171E+04</pdfrwt>
<totfact> 0.12319751E+02</totfact>
</mgrwt>
<rwgt>
<wgt id='morphing_basis_vector_1'> +2.3300078e-04 </wgt>
<wgt id='morphing_basis_vector_2'> +1.9722491e-04 </wgt>
<wgt id='morphing_basis_vector_3'> +2.3372568e-04 </wgt>
<wgt id='morphing_basis_vector_4'> +1.0052567e-04 </wgt>
<wgt id='morphing_basis_vector_5'> +2.1213493e-04 </wgt>
</rwgt>
</event>
<event>
 4      1 +7.8865000e-07 1.14431300e+03 7.81860800e-03 8.55789400e-02
        2 -1    0    0  501    0 +0.0000000000e+00 +0.0000000000e+00 +9.9593890097e+02 9.9593890097e+02 0.0000000000e+00 0.0000e+00 1.0000e+00
       -2 -1    0    0    0  501 -0.0000000000e+00 -0.0000000000e+00 -3.2869777567e+02 3.2869777567e+02 0.0000000000e+00 0.0000e+00 -1.0000e+00
      -13  1    1    2    0    0 -1.7431602705e+02 -5.4370740493e+02 +2.9094543030e+02 6.4082217727e+02 0.0000000000e+00 0.0000e+00 -1.0000e+00
       13  1    1    2    0    0 +1.7431602705e+02 +5.4370740493e+02 +3.7629569500e+02 6.8381449937e+02 0.0000000000e+00 0.0000e+00 1.0000e+00
<mgrwt>
<rscale>  0 0.11443127E+04</rscale>
<asrwt>0</asrwt>
<pdfrwt beam="1">  1        2 0.15322137E+00 0.11443127E+04</pdfrwt>
<pdfrwt beam="2">  1       -2 0.50568889E-01 0.11443127E+04</pdfrwt>
<totfact> 0.11536432E+02</totfact>
</mgrwt>
<rwgt>
<wgt id='morphing_basis_vector_1'> +2.1137033e-04 </wgt>
<wgt id='morphing_basis_vector_2'> +1.4841608e-04 </wgt>
<wgt id='morphing_basis_vector_3'> +2.1034140e-04 </wgt>
<wgt id='morphing_basis_vector_4'> +1.2039609e-04 </wgt>
<wgt id='morphing_basis_vector_5'> +2.0591247e-04 </wgt>
</rwgt>
</event>
<event>
 4      1 +7.8865000e-07 1.13149000e+03 7.81860800e-03 8.56833600e-02
        2 -1    0    0  501    0 +0.0000000000e+00 +0.0000000000e+00 +7.0507774134e+02 7.0507774134e+02 0.0000000000e+00 0.0000e+00 1.0000e+00
       -2 -1    0    0    0  501 -0.0000000000e+00 -0.0000000000e+00 -4.5394619525e+02 4.5394619525e+02 0.0000000000e+00 0.0000e+00 -1.0000e+00
      -13  1    1    2    0    0 -3.6111856419e+02 +3.5154084007e+02 +3.8888101932e+02 6.3656580715e+02 0.0000000000e+00 0.0000e+00 1.0000e+00
       13  1    1    2    0    0 +3.6111856419e+02 -3.5154084007e+02 -1.3774947323e+02 5.2245812944e+02 0.0000000000e+00 0.0000e+00 -1.0000e+00
<mgrwt>
<rscale>  0 0.11314899E+04</rscale>
<asrwt>0</asrwt>
<pdfrwt beam="1">  1        2 0.10847350E+00 0.11314899E+04</pdfrwt>
<pdfrwt beam="2">  1       -2 0.69837876E-01 0.11314899E+04</pdfrwt>
<totfact> 0.93964685E+01</totfact>
</mgrwt>
<rwgt>
<wgt id='morphing_basis_vector_1'> +2.2852242e-04 </wgt>
<wgt id='morphing_basis_vector_2'> +2.2014916e-04 </wgt>
<wgt id='morphing_basis_vector_3'> +2.2889600e-04 </wgt>
<wgt id='morphing_basis_vector_4'> +7.1596474e-05 </wgt>
<wgt id='morphing_basis_vector_5'> +1.9343514e-04 </wgt>
</rwgt>
</event>
<event>
 4      1 +7.8865000e-07 1.12862100e+03 7.81860800e-03 8.57069300e-02
        2 -1    0    0  501    0 +0.0000000000e+00 +0.0000000000e+00 +1.9305919729e+03 1.9305919729e+03 0.0000000000e+00 0.0000e+00 -1.0000e+00
       -2 -1    0    0    0  501 -0.0000000000e+00 -0.0000000000e+00 -1.6494737209e+02 1.6494737209e+02 0.0000000000e+00 0.0000e+00 1.0000e+00
      -13  1    1    2    0    0 +2.5699999181e+02 +1.9217365019e+02 +2.0960529040e+01 3.2158832596e+02 0.0000000000e+00 0.0000e+00 1.0000e+00
       13  1    1    2    0    0 -2.5699999181e+02 -1.9217365019e+02 +1.7446840717e+03 1.7739510190e+03 0.0000000000e+00 0.0000e+00 -1.0000e+00
<mgrwt>
<rscale>  0 0.11286205E+04</rscale>
<asrwt>0</asrwt>
<pdfrwt beam="1">  1        2 0.29701413E+00 0.11286205E+04</pdfrwt>
<pdfrwt beam="2">  1       -2 0.25376520E-01 0.11286205E+04</pdfrwt>
<totfact> 0.12007309E+02</totfact>
</mgrwt>
<rwgt>
<wgt id='morphing_basis_vector_1'> +1.9519974e-04 </wgt>
<wgt id='morphing_basis_vector_2'> +1.2421310e-04 </wgt>
<wgt id='morphing_basis_vector_3'> +1.9320407e-04 </wgt>
<wgt id='morphing_basis_vector_4'> +1.2265928e-04 </wgt>
<wgt id='morphing_basis_vector_5'> +1.9474895e-04 </wgt>
</rwgt>
</event>
<event>
 4      1 +7.8865000e-07 1.15903400e+03 7.81860800e-03 8.54608400e-02
        2 -1    0    0  501    0 +0.0000000000e+00 +0.0000000000e+00 +6.9692904571e+02 6.9692904571e+02 0.0000000000e+00 0.0000e+00 -1.0000e+00
       -2 -1    0    0    0  501 -0.0000000000e+00 -0.0000000000e+00 -4.8188508199e+02 4.8188508199e+02 0.0000000000e+00 0.0000e+00 1.0000e+00
      -13  1    1    2    0    0 +3.6627180164e+02 -4.2494669370e+02 -4.0232899914e+01 5.6245303039e+02 0.0000000000e+00 0.0000e+00 1.0000e+00
       13  1    1    2    0    0 -3.6627180164e+02 +4.2494669370e+02 +2.5527686363e+02 6.1636109730e+02 0.0000000000e+00 0.0000e+00 -1.0000e+00
<mgrwt>
<rscale>  0 0.11590336E+04</rscale>
<asrwt>0</asrwt>
<pdfrwt beam="1">  1        2 0.10721985E+00 0.11590336E+04</pdfrwt>
<pdfrwt beam="2">  1       -2 0.74136167E-01 0.11590336E+04</pdfrwt>
<totfact> 0.83595162E+01</totfact>
</mgrwt>
<rwgt>
<wgt id='morphing_basis_vector_1'> +2.1863421e-04 </wgt>
<wgt id='morphing_basis_vector_2'> +1.4643225e-04 </wgt>
<wgt id='morphing_basis_vector_3'> +2.1788414e-04 </wgt>
<wgt id='morphing_basis_vector_4'> +1.3242207e-04 </wgt>
<wgt id='morphing_basis_vector_5'> +2.1776690e-04 </wgt>
</rwgt>
</event>
<event>
 4      1 +7.8865000e-07 1.09822400e+03 7.81860800e-03 8.59610800e-02
        2 -1    0    0  501    0 +0.0000000000e+00 +0.0000000000e+00 +7.9711506893e+02 7.9711506893e+02 0.0000000000e+00 0.0000e+00 -1.0000e+00
       -2 -1    0    0    0  501 -0.0000000000e+00 -0.0000000000e+00 -3.7826921777e+02 3.7826921777e+02 0.0000000000e+00 0.0000e+00 1.0000e+00
      -13  1    1    2    0    0 +3.1595763146e+02 +2.7577723720e+02 -1.6994090507e+02 4.5250659736e+02 0.0000000000e+00 0.0000e+00 1.0000e+00
       13  1    1    2    0    0 -3.1595763146e+02 -2.7577723720e+02 +5.8878675623e+02 7.2287768934e+02 0.0000000000e+00 0.0000e+00 -1.0000e+00
<mgrwt>
<rscale>  0 0.10982242E+04</rscale>
<asrwt>0</asrwt>
<pdfrwt beam="1">  1        2 0.12263309E+00 0.10982242E+04</pdfrwt>
<pdfrwt beam="2">  1       -2 0.58195264E-01 0.10982242E+04</pdfrwt>
<totfact> 0.11806831E+02</totfact>
</mgrwt>
<rwgt>
<wgt id='morphing_basis_vector_1'> +1.7645965e-04 </wgt>
<wgt id='morphing_basis_vector_2'> +1.1251520e-04 </wgt>
<wgt id='morphing_basis_vector_3'> +1.7364385e-04 </wgt>
<wgt id='morphing_basis_vector_4'> +1.0878436e-04 </wgt>
<wgt id='morphing_basis_vector_5'> +1.7327981e-04 </wgt>
</rwgt>
</event>
<event>
 4      1 +7.8865000e-07 1.11504400e+03 7.81860800e-03 8.58194200e-02
        2 -1    0    0  501    0 +0.0000000000e+00 +0.0000000000e+00 +1.7692279821e+03 1.7692279821e+03 0.0000000000e+00 0.0000e+00 1.0000e+00
       -2 -1    0    0    0  501 -0.0000000000e+00 -0.0000000000e+00 -1.7568720381e+02 1.7568720381e+02 0.0000000000e+00 0.0000e+00 -1.0000e+00
      -13  1    1    2    0    0 -1.2532309339e+01 -4.5080888343e+02 +2.2502610758e+02 5.0400640596e+02 0.0000000000e+00 0.0000e+00 -1.0000e+00
       13  1    1    2    0    0 +1.2532309339e+01 +4.5080888343e+02 +1.3685146707e+03 1.4409087799e+03 0.0000000000e+00 0.0000e+00 1.0000e+00
<mgrwt>
<rscale>  0 0.11150439E+04</rscale>
<asrwt>0</asrwt>
<pdfrwt beam="1">  1        2 0.27218891E+00 0.11150439E+04</pdfrwt>
<pdfrwt beam="2">  1       -2 0.27028802E-01 0.11150439E+04</pdfrwt>
<totfact> 0.13240544E+02</totfact>
</mgrwt>
<rwgt>
<wgt id='morphing_basis_vector_1'> +1.8695643e-04 </wgt>
<wgt id='morphing_basis_vector_2'> +1.1980216e-04 </wgt>
<wgt id='morphing_basis_vector_3'> +1.8459826e-04 </wgt>
<wgt id='morphing_basis_vector_4'> +1.1580334e-04 </wgt>
<wgt id='morphing_basis_vector_5'> +1.8489898e-04 </wgt>
</rwgt>
</event>
<event>
 4      1 +7.8865000e-07 1.21607400e+03 7.81860800e-03 8.50200700e-02
        2 -1    0    0  501    0 +0.0000000000e+00 +0.0000000000e+00 +1.2387476257e+03 1.2387476257e+03 0.0000000000e+00 0.0000e+00 1.0000e+00
       -2 -1    0    0    0  501 -0.0000000000e+00 -0.0000000000e+00 -2.9845364796e+02 2.9845364796e+02 0.0000000000e+00 0.0000e+00 -1.0000e+00
      -13  1    1    2    0    0 +5.2987721304e+02 +2.1847667722e+02 +2.1354768659e+02 6.1164085364e+02 0.0000000000e+00 0.0000e+00 -1.0000e+00
       13  1    1    2    0    0 -5.2987721304e+02 -2.1847667722e+02 +7.2674629113e+02 9.2556042000e+02 0.0000000000e+00 0.0000e+00 1.0000e+00
<mgrwt>
<rscale>  0 0.12160736E+04</rscale>
<asrwt>0</asrwt>
<pdfrwt beam="1">  1        2 0.19057656E+00 0.12160736E+04</pdfrwt>
<pdfrwt beam="2">  1       -2 0.45915947E-01 0.12160736E+04</pdfrwt>
<totfact> 0.99077834E+01</totfact>
</mgrwt>
<rwgt>
<wgt id='morphing_basis_vector_1'> +2.6110018e-04 </wgt>
<wgt id='morphing_basis_vector_2'> +1.7330464e-04 </wgt>
<wgt id='morphing_basis_vector_3'> +2.6261273e-04 </wgt>
<wgt id='morphing_basis_vector_4'> +1.6402420e-04 </wgt>
<wgt id='morphing_basis_vector_5'> +2.6704986e-04 </wgt>
</rwgt>
</event>
<event>
 4      1 +7.8865000e-07 1.09590500e+03 7.81860800e-03 8.59808200e-02
        2 -1    0    0  501    0 +0.0000000000e+00 +0.0000000000e+00 +9.7704442518e+02 9.7704442518e+02 0.0000000000e+00 0.0000e+00 1.0000e+00
       -2 -1    0    0    0  501 -0.0000000000e+00 -0.0000000000e+00 -3.0730639979e+02 3.0730639979e+02 0.0000000000e+00 0.0000e+00 -1.0000e+00
      -13  1    1    2    0    0 -3.2700376564e+02 +3.8992957176e+02 +5.7296755395e+02 7.6633436016e+02 0.0000000000e+00 0.0000e+00 1.0000e+00
       13  1    1    2    0    0 +3.2700376564e+02 -3.8992957176e+02 +9.6770471446e+01 5.1801646482e+02 0.0000000000e+00 0.0000e+00 -1.0000e+00
<mgrwt>
<rscale>  0 0.10959051E+04</rscale>
<asrwt>0</asrwt>
<pdfrwt beam="1">  1        2 0.15031453E+00 0.10959051E+04</pdfrwt>
<pdfrwt beam="2">  1       -2 0.47277908E-01 0.10959051E+04</pdfrwt>
<totfact> 0.13563380E+02</totfact>
</mgrwt>
<rwgt>
<wgt id='morphing_basis_vector_1'> +1.9655549e-04 </wgt>
<wgt id='morphing_basis_vector_2'> +1.7638781e-04 </wgt>
<wgt id='morphing_basis_vector_3'> +1.9450153e-04 </wgt>
<wgt id='morphing_basis_vector_4'> +7.2641469e-05 </wgt>
<wgt id='morphing_basis_vector_5'> +1.6946239e-04 </wgt>
</rwgt>
</event>
<event>
 4      1 +7.8865000e-07 1.23316800e+03 7.81860800e-03 8.48929000e-02
        2 -1    0    0  501    0 +0.0000000000e+00 +0.0000000000e+00 +5.4305781345e+02 5.4305781345e+02 0.0000000000e+00 0.0000e+00 -1.0000e+00
       -2 -1    0    0    0  501 -0.0000000000e+00 -0.0000000000e+00 -7.0006559881e+02 7.0006559881e+02 0.0000000000e+00 0.0000e+00 1.0000e+00
      -13  1    1    2    0    0 +9.9768878435e+01 -2.1497390043e+02 -6.5231644056e+02 6.9403483025e+02 0.0000000000e+00 0.0000e+00 1.0000e+00
       13  1    1    2    0    0 -9.9768878435e+01 +2.1497390043e+02 +4.9530865520e+02 5.4908858201e+02 0.0000000000e+00 0.0000e+00 -1.0000e+00
<mgrwt>
<rscale>  0 0.12331684E+04</rscale>
<asrwt>0</asrwt>
<pdfrwt beam="1">  1        2 0.83547356E-01 0.12331684E+04</pdfrwt>
<pdfrwt beam="2">  1       -2 0.10770240E+00 0.12331684E+04</pdfrwt>
<totfact> 0.46730753E+01</totfact>
</mgrwt>
<rwgt>
<wgt id='morphing_basis_vector_1'> +2.7265933e-04 </wgt>
<wgt id='morphing_basis_vector_2'> +1.7508809e-04 </wgt>
<wgt id='morphing_basis_vector_3'> +2.7457467e-04 </wgt>
<wgt id='morphing_basis_vector_4'> +1.7852413e-04 </wgt>
<wgt id='morphing_basis_vector_5'> +2.8357668e-04 </wgt>
</rwgt>
</event>
<event>
 4      1 +7.8865000e-07 1.20691600e+03 7.81860800e-03 8.50891000e-02
        2 -1    0    0  501    0 +0.0000000000e+00 +0.0000000000e+00 +2.8871672298e+03 2.8871672298e+03 0.0000000000e+00 0.0000e+00 1.0000e+00
       -2 -1    0    0    0  501 -0.0000000000e+00 -0.0000000000e+00 -1.2613105568e+02 1.2613105568e+02 0.0000000000e+00 0.0000e+00 -1.0000e+00
      -13  1    1    2    0    0 -9.3703375244e+01 +4.8178681711e+02 +2.2570763535e+03 2.3098252153e+03 0.0000000000e+00 0.0000e+00 1.0000e+00
       13  1    1    2    0    0 +9.3703375244e+01 -4.8178681711e+02 +5.0395982063e+02 7.0347307019e+02 0.0000000000e+00 0.0000e+00 -1.0000e+00
<mgrwt>
<rscale>  0 0.12069158E+04</rscale>
<asrwt>0</asrwt>
<pdfrwt beam="1">  1        2 0.44417952E+00 0.12069158E+04</pdfrwt>
<pdfrwt beam="2">  1       -2 0.19404780E-01 0.12069158E+04</pdfrwt>
<totfact> 0.51630116E+01</totfact>
</mgrwt>
<rwgt>
<wgt id='morphing_basis_vector_1'> +3.0757629e-04 </wgt>
<wgt id='morphing_basis_vector_2'> +3.2998896e-04 </wgt>
<wgt id='morphing_basis_vector_3'> +3.1605062e-04 </wgt>
<wgt id='morphing_basis_vector_4'> +6.6252288e-05 </wgt>
<wgt id='morphing_basis_vector_5'> +2.5235021e-04 </wgt>
</rwgt>
</event>
<event>
 4      1 +7.8865000e-07 1.21342400e+03 7.81860800e-03 8.50399800e-02
        2 -1    0    0  501    0 +0.0000000000e+00 +0.0000000000e+00 +7.3511718304e+02 7.3511718304e+02 0.0000000000e+00 0.0000e+00 -1.0000e+00
       -2 -1    0    0    0  501 -0.0000000000e+00 -0.0000000000e+00 -5.0073552718e+02 5.0073552718e+02 0.0000000000e+00 0.0000e+00 1.0000e+00
      -13  1    1    2    0    0 -2.2170468652e+02 -4.4946726824e+02 +4.6545503404e+02 6.8397527876e+02 0.0000000000e+00 0.0000e+00 1.0000e+00
       13  1    1    2    0    0 +2.2170468652e+02 +4.4946726824e+02 -2.3107337818e+02 5.5187743145e+02 0.0000000000e+00 0.0000e+00 -1.0000e+00
<mgrwt>
<rscale>  0 0.12134237E+04</rscale>
<asrwt>0</asrwt>
<pdfrwt beam="1">  1        2 0.11309495E+00 0.12134237E+04</pdfrwt>
<pdfrwt beam="2">  1       -2 0.77036235E-01 0.12134237E+04</pdfrwt>
<totfact> 0.71604871E+01</totfact>
</mgrwt>
<rwgt>
<wgt id='morphing_basis_vector_1'> +3.1145094e-04 </wgt>
<wgt id='morphing_basis_vector_2'> +3.2947429e-04 </wgt>
<wgt id='morphing_basis_vector_3'> +3.2030043e-04 </wgt>
<wgt id='morphing_basis_vector_4'> +7.1983600e-05 </wgt>
<wgt id='morphing_basis_vector_5'> +2.5842284e-04 </wgt>
</rwgt>
</event>
<event>
 4      1 +7.8865000e-07 1.18189700e+03 7.81860800e-03 8.52810200e-02
        2 -1    0    0  501    0 +0.0000000000e+00 +0.0000000000e+00 +3.1248384629e+03 3.1248384629e+03 0.0000000000e+00 0.0000e+00 -1.0000e+00
       -2 -1    0    0    0  501 -0.0000000000e+00 -0.0000000000e+00 -1.1175628252e+02 1.1175628252e+02 0.0000000000e+00 0.0000e+00 1.0000e+00
      -13  1    1    2    0    0 -5.1631784556e+02 +2.1285232223e+02 +9.7744061153e+02 1.1257354830e+03 0.0000000000e+00 0.0000e+00 1.0000e+00
       13  1    1    2    0    0 +5.1631784556e+02 -2.1285232223e+02 +2.0356415688e+03 2.1108592624e+03 0.0000000000e+00 0.0000e+00 -1.0000e+00
<mgrwt>
<rscale>  0 0.11818973E+04</rscale>
<asrwt>0</asrwt>
<pdfrwt beam="1">  1        2 0.48074431E+00 0.11818973E+04</pdfrwt>
<pdfrwt beam="2">  1       -2 0.17193277E-01 0.11818973E+04</pdfrwt>
<totfact> 0.44455794E+01</totfact>
</mgrwt>
<rwgt>
<wgt id='morphing_basis_vector_1'> +2.3447553e-04 </wgt>
<wgt id='morphing_basis_vector_2'> +1.5531670e-04 </wgt>
<wgt id='morphing_basis_vector_3'> +2.3452190e-04 </wgt>
<wgt id='morphing_basis_vector_4'> +1.4532624e-04 </wgt>
<wgt id='morphing_basis_vector_5'> +2.3669154e-04 </wgt>
</rwgt>
</event>
<event>
 4      1 +7.8865000e-07 1.15615800e+03 7.81860800e-03 8.54837600e-02
        2 -1    0    0  501    0 +0.0000000000e+00 +0.0000000000e+00 +1.2466709191e+03 1.2466709191e+03 0.0000000000e+00 0.0000e+00 -1.0000e+00
       -2 -1    0    0    0  501 -0.0000000000e+00 -0.0000000000e+00 -2.6805436322e+02 2.6805436322e+02 0.0000000000e+00 0.0000e+00 1.0000e+00
      -13  1    1    2    0    0 +2.3725882751e+02 +4.8853532098e+01 -1.9835381914e+02 3.1308570136e+02 0.0000000000e+00 0.0000e+00 1.0000e+00
       13  1    1    2    0    0 -2.3725882751e+02 -4.8853532098e+01 +1.1769703751e+03 1.2016395810e+03 0.0000000000e+00 0.0000e+00 -1.0000e+00
<mgrwt>
<rscale>  0 0.11561584E+04</rscale>
<asrwt>0</asrwt>
<pdfrwt beam="1">  1        2 0.19179552E+00 0.11561584E+04</pdfrwt>
<pdfrwt beam="2">  1       -2 0.41239134E-01 0.11561584E+04</pdfrwt>
<totfact> 0.12078349E+02</totfact>
</mgrwt>
<rwgt>
<wgt id='morphing_basis_vector_1'> +2.1366972e-04 </wgt>
<wgt id='morphing_basis_vector_2'> +1.3622037e-04 </wgt>
<wgt id='morphing_basis_vector_3'> +2.1253495e-04 </wgt>
<wgt id='morphing_basis_vector_4'> +1.3596928e-04 </wgt>
<wgt id='morphing_basis_vector_5'> +2.1580795e-04 </wgt>
</rwgt>
</event>
<event>
 4      1 +7.8865000e-07 1.17294600e+03 7.81860800e-03 8.53509000e-02
        2 -1    0    0  501    0 +0.0000000000e+00 +0.0000000000e+00 +1.5179232498e+03 1.5179232498e+03 0.0000000000e+00 0.0000e+00 -1.0000e+00
       -2 -1    0    0    0  501 -0.0000000000e+00 -0.0000000000e+00 -2.2659287492e+02 2.2659287492e+02 0.0000000000e+00 0.0000e+00 1.0000e+00
      -13  1    1    2    0    0 -1.7987955187e+02 +2.5803457318e+02 -9.0526189857e+01 3.2731251914e+02 0.0000000000e+00 0.0000e+00 1.0000e+00
       13  1    1    2    0    0 +1.7987955187e+02 -2.5803457318e+02 +1.3818565648e+03 1.4172036056e+03 0.0000000000e+00 0.0000e+00 -1.0000e+00
<mgrwt>
<rscale>  0 0.11729460E+04</rscale>
<asrwt>0</asrwt>
<pdfrwt beam="1">  1        2 0.23352665E+00 0.11729460E+04</pdfrwt>
<pdfrwt beam="2">  1       -2 0.34860443E-01 0.11729460E+04</pdfrwt>
<totfact> 0.11557590E+02</totfact>
</mgrwt>
<rwgt>
<wgt id='morphing_basis_vector_1'> +2.2564900e-04 </wgt>
<wgt id='morphing_basis_vector_2'> +1.4420560e-04 </wgt>
<wgt id='morphing_basis_vector_3'> +2.2510226e-04 </wgt>
<wgt id='morphing_basis_vector_4'> +1.4445068e-04 </wgt>
<wgt id='morphing_basis_vector_5'> +2.2943049e-04 </wgt>
</rwgt>
</event>
<event>
 4      1 +7.8865000e-07 1.27376700e+03 7.81860800e-03 8.45993800e-02
        2 -1    0    0  501    0 +0.0000000000e+00 +0.0000000000e+00 +1.0784008640e+03 1.0784008640e+03 0.0000000000e+00 0.0000e+00 1.0000e+00
       -2 -1    0    0    0  501 -0.0000000000e+00 -0.0000000000e+00 -3.7613170777e+02 3.7613170777e+02 0.0000000000e+00 0.0000e+00 -1.0000e+00
      -13  1    1    2    0    0 +5.1669102167e+02 -1.4139270534e+02 +7.4448911866e+02 9.1718349135e+02 0.0000000000e+00 0.0000e+00 -1.0000e+00
       13  1    1    2    0    0 -5.1669102167e+02 +1.4139270534e+02 -4.2219962428e+01 5.3734908042e+02 0.0000000000e+00 0.0000e+00 1.0000e+00
<mgrwt>
<rscale>  0 0.12737673E+04</rscale>
<asrwt>0</asrwt>
<pdfrwt beam="1">  1        2 0.16590782E+00 0.12737673E+04</pdfrwt>
<pdfrwt beam="2">  1       -2 0.57866417E-01 0.12737673E+04</pdfrwt>
<totfact> 0.77656809E+01</totfact>
</mgrwt>
<rwgt>
<wgt id='morphing_basis_vector_1'> +3.7091489e-04 </wgt>
<wgt id='morphing_basis_vector_2'> +3.8612907e-04 </wgt>
<wgt id='morphing_basis_vector_3'> +3.8647192e-04 </wgt>
<wgt id='morphing_basis_vector_4'> +9.4381392e-05 </wgt>
<wgt id='morphing_basis_vector_5'> +3.1733625e-04 </wgt>
</rwgt>
</event>
<event>
 4      1 +7.8865000e-07 1.11065700e+03 7.81860800e-03 8.58561100e-02
        2 -1    0    0  501    0 +0.0000000000e+00 +0.0000000000e+00 +4.0265194959e+02 4.0265194959e+02 0.0000000000e+00 0.0000e+00 1.0000e+00
       -2 -1    0    0    0  501 -0.0000000000e+00 -0.0000000000e+00 -7.6589719136e+02 7.6589719136e+02 0.0000000000e+00 0.0000e+00 -1.0000e+00
      -13  1    1    2    0    0 -4.8512227649e+02 +1.1665269187e+01 -4.6571610491e+02 6.7258545332e+02 0.0000000000e+00 0.0000e+00 -1.0000e+00
       13  1    1    2    0    0 +4.8512227649e+02 -1.1665269187e+01 +1.0247086315e+02 4.9596368763e+02 0.0000000000e+00 0.0000e+00 1.0000e+00
<mgrwt>
<rscale>  0 0.11106575E+04</rscale>
<asrwt>0</asrwt>
<pdfrwt beam="1">  1        2 0.61946454E-01 0.11106575E+04</pdfrwt>
<pdfrwt beam="2">  1       -2 0.11783034E+00 0.11106575E+04</pdfrwt>
<totfact> 0.52800389E+01</totfact>
</mgrwt>
<rwgt>
<wgt id='morphing_basis_vector_1'> +1.8458738e-04 </wgt>
<wgt id='morphing_basis_vector_2'> +1.1911408e-04 </wgt>
<wgt id='morphing_basis_vector_3'> +1.8212737e-04 </wgt>
<wgt id='morphing_basis_vector_4'> +1.1326026e-04 </wgt>
<wgt id='morphing_basis_vector_5'> +1.8177124e-04 </wgt>
</rwgt>
</event>
<event>
 4      1 +7.8865000e-07 1.18435900e+03 7.81860800e-03 8.52619100e-02
        2 -1    0    0  501    0 +0.0000000000e+00 +0.0000000000e+00 +1.2030659568e+03 1.2030659568e+03 0.0000000000e+00 0.0000e+00 -1.0000e+00
       -2 -1    0    0    0  501 -0.0000000000e+00 -0.0000000000e+00 -2.9148572244e+02 2.9148572244e+02 0.0000000000e+00 0.0000e+00 1.0000e+00
      -13  1    1    2    0    0 -4.4656807101e+02 -2.6299934051e+02 +8.1733239919e+02 9.6779333844e+02 0.0000000000e+00 0.0000e+00 1.0000e+00
       13  1    1    2    0    0 +4.4656807101e+02 +2.6299934051e+02 +9.4247835153e+01 5.2675834079e+02 0.0000000000e+00 0.0000e+00 -1.0000e+00
<mgrwt>
<rscale>  0 0.11843590E+04</rscale>
<asrwt>0</asrwt>
<pdfrwt beam="1">  1        2 0.18508707E+00 0.11843590E+04</pdfrwt>
<pdfrwt beam="2">  1       -2 0.44843958E-01 0.11843590E+04</pdfrwt>
<totfact> 0.10899858E+02</totfact>
</mgrwt>
<rwgt>
<wgt id='morphing_basis_vector_1'> +2.7470991e-04 </wgt>
<wgt id='morphing_basis_vector_2'> +2.7194120e-04 </wgt>
<wgt id='morphing_basis_vector_3'> +2.7941873e-04 </wgt>
<wgt id='morphing_basis_vector_4'> +8.1165323e-05 </wgt>
<wgt id='morphing_basis_vector_5'> +2.3438132e-04 </wgt>
</rwgt>
</event>
<event>
 4      1 +7.8865000e-07 1.13028800e+03 7.81860800e-03 8.56932300e-02
        2 -1    0    0  501    0 +0.0000000000e+00 +0.0000000000e+00 +8.5630181345e+02 8.5630181345e+02 0.0000000000e+00 0.0000e+00 1.0000e+00
       -2 -1    0    0    0  501 -0.0000000000e+00 -0.0000000000e+00 -3.7298472657e+02 3.7298472657e+02 0.0000000000e+00 0.0000e+00 -1.0000e+00
      -13  1    1    2    0    0 -5.5739068883e+02 -9.1899003140e+01 +2.2419976759e+02 6.0777902445e+02 0.0000000000e+00 0.0000e+00 -1.0000e+00
       13  1    1    2    0    0 +5.5739068883e+02 +9.1899003140e+01 +2.5911731929e+02 6.2150751558e+02 0.0000000000e+00 0.0000e+00 1.0000e+00
<mgrwt>
<rscale>  0 0.11302876E+04</rscale>
<asrwt>0</asrwt>
<pdfrwt beam="1">  1        2 0.13173874E+00 0.11302876E+04</pdfrwt>
<pdfrwt beam="2">  1       -2 0.57382266E-01 0.11302876E+04</pdfrwt>
<totfact> 0.11040682E+02</totfact>
</mgrwt>
<rwgt>
<wgt id='morphing_basis_vector_1'> +2.0257976e-04 </wgt>
<wgt id='morphing_basis_vector_2'> +1.4388152e-04 </wgt>
<wgt id='morphing_basis_vector_3'> +2.0108350e-04 </wgt>
<wgt id='morphing_basis_vector_4'> +1.1295098e-04 </wgt>
<wgt id='morphing_basis_vector_5'> +1.9529218e-04 </wgt>
</rwgt>
</event>
<event>
 4      1 +7.8865000e-07 1.18574500e+03 7.81860800e-03 8.52511800e-02
        2 -1    0    0  501    0 +0.0000000000e+00 +0.0000000000e+00 +1.2814891458e+03 1.2814891458e+03 0.0000000000e+00 0.0000e+00 1.0000e+00
       -2 -1    0    0    0  501 -0.0000000000e+00 -0.0000000000e+00 -2.7428867797e+02 2.7428867797e+02 0.0000000000e+00 0.0000e+00 -1.0000e+00
      -13  1    1    2    0    0 +2.7840452376e+02 -5.1384333039e+02 +3.7269615679e+02 6.9314246178e+02 0.0000000000e+00 0.0000e+00 -1.0000e+00
       13  1    1    2    0    0 -2.7840452376e+02 +5.1384333039e+02 +6.3450431105e+02 8.6263536201e+02 0.0000000000e+00 0.0000e+00 1.0000e+00
<mgrwt>
<rscale>  0 0.11857453E+04</rscale>
<asrwt>0</asrwt>
<pdfrwt beam="1">  1        2 0.19715217E+00 0.11857453E+04</pdfrwt>
<pdfrwt beam="2">  1       -2 0.42198259E-01 0.11857453E+04</pdfrwt>
<totfact> 0.11021341E+02</totfact>
</mgrwt>
<rwgt>
<wgt id='morphing_basis_vector_1'> +2.3953464e-04 </wgt>
<wgt id='morphing_basis_vector_2'> +1.6378918e-04 </wgt>
<wgt id='morphing_basis_vector_3'> +2.3999659e-04 </wgt>
<wgt id='morphing_basis_vector_4'> +1.4364680e-04 </wgt>
<wgt id='morphing_basis_vector_5'> +2.3972644e-04 </wgt>
</rwgt>
</event>
<event>
 4      1 +7.8865000e-07 1.08713000e+03 7.81860800e-03 8.60559600e-02
        2 -1    0    0  501    0 +0.0000000000e+00 +0.0000000000e+00 +3.4905153704e+02 3.4905153704e+02 0.0000000000e+00 0.0000e+00 -1.0000e+00
       -2 -1    0    0    0  501 -0.0000000000e+00 -0.0000000000e+00 -8.4647365936e+02 8.4647365936e+02 0.0000000000e+00 0.0000e+00 1.0000e+00
      -13  1    1    2    0    0 +2.4523331981e+02 -4.8499791857e+02 -2.3768270410e+02 5.9317403010e+02 0.0000000000e+00 0.0000e+00 1.0000e+00
       13  1    1    2    0    0 -2.4523331981e+02 +4.8499791857e+02 -2.5973941822e+02 6.0235116629e+02 0.0000000000e+00 0.0000e+00 -1.0000e+00
<mgrwt>
<rscale>  0 0.10871300E+04</rscale>
<asrwt>0</asrwt>
<pdfrwt beam="1">  1        2 0.53700236E-01 0.10871300E+04</pdfrwt>
<pdfrwt beam="2">  1       -2 0.13022672E+00 0.10871300E+04</pdfrwt>
<totfact> 0.47795430E+01</totfact>
</mgrwt>
<rwgt>
<wgt id='morphing_basis_vector_1'> +1.7607802e-04 </wgt>
<wgt id='morphing_basis_vector_2'> +1.2686975e-04 </wgt>
<wgt id='morphing_basis_vector_3'> +1.7316849e-04 </wgt>
<wgt id='morphing_basis_vector_4'> +9.4080225e-05 </wgt>
<wgt id='morphing_basis_vector_5'> +1.6526111e-04 </wgt>
</rwgt>
</event>
<event>
 4      1 +7.8865000e-07 1.11823600e+03 7.81860800e-03 8.57928300e-02
        2 -1    0    0  501    0 +0.0000000000e+00 +0.0000000000e+00 +1.9926028016e+03 1.9926028016e+03 0.0000000000e+00 0.0000e+00 1.0000e+00
       -2 -1    0    0    0  501 -0.0000000000e+00 -0.0000000000e+00 -1.5688659297e+02 1.5688659297e+02 0.0000000000e+00 0.0000e+00 -1.0000e+00
      -13  1    1    2    0    0 -1.5738825557e+02 -4.9099325940e+02 +5.0216501129e+02 7.1973268811e+02 0.0000000000e+00 0.0000e+00 -1.0000e+00
       13  1    1    2    0    0 +1.5738825557e+02 +4.9099325940e+02 +1.3335511974e+03 1.4297567065e+03 0.0000000000e+00 0.0000e+00 1.0000e+00
<mgrwt>
<rscale>  0 0.11182355E+04</rscale>
<asrwt>0</asrwt>
<pdfrwt beam="1">  1        2 0.30655426E+00 0.11182355E+04</pdfrwt>
<pdfrwt beam="2">  1       -2 0.24136400E-01 0.11182355E+04</pdfrwt>
<totfact> 0.12096225E+02</totfact>
</mgrwt>
<rwgt>
<wgt id='morphing_basis_vector_1'> +1.8990843e-04 </wgt>
<wgt id='morphing_basis_vector_2'> +1.2395763e-04 </wgt>
<wgt id='morphing_basis_vector_3'> +1.8769675e-04 </wgt>
<wgt id='morphing_basis_vector_4'> +1.1566979e-04 </wgt>
<wgt id='morphing_basis_vector_5'> +1.8706895e-04 </wgt>
</rwgt>
</event>
<event>
 4      1 +7.8865000e-07 1.20204500e+03 7.81860800e-03 8.51260800e-02
        2 -1    0    0  501    0 +0.0000000000e+00 +0.0000000000e+00 +9.8748662813e+02 9.8748662813e+02 0.0000000000e+00 0.0000e+00 1.0000e+00
       -2 -1    0    0    0  501 -0.0000000000e+00 -0.0000000000e+00 -3.6580532716e+02 3.6580532716e+02 0.0000000000e+00 0.0000e+00 -1.0000e+00
      -13  1    1    2    0    0 +3.1808865004e+02 -3.7098025835e+02 -8.3071219414e+01 4.9568898400e+02 0.0000000000e+00 0.0000e+00 -1.0000e+00
       13  1    1    2    0    0 -3.1808865004e+02 +3.7098025835e+02 +7.0475252039e+02 8.5760297129e+02 0.0000000000e+00 0.0000e+00 1.0000e+00
<mgrwt>
<rscale>  0 0.12020447E+04</rscale>
<asrwt>0</asrwt>
<pdfrwt beam="1">  1        2 0.15192102E+00 0.12020447E+04</pdfrwt>
<pdfrwt beam="2">  1       -2 0.56277743E-01 0.12020447E+04</pdfrwt>
<totfact> 0.93962693E+01</totfact>
</mgrwt>
<rwgt>
<wgt id='morphing_basis_vector_1'> +2.4815756e-04 </wgt>
<wgt id='morphing_basis_vector_2'> +1.6048784e-04 </wgt>
<wgt id='morphing_basis_vector_3'> +2.4881116e-04 </wgt>
<wgt id='morphing_basis_vector_4'> +1.5914835e-04 </wgt>
<wgt id='morphing_basis_vector_5'> +2.5446507e-04 </wgt>
</rwgt>
</event>
<event>
 4      1 +7.8865000e-07 1.07319700e+03 7.81860800e-03 8.61767900e-02
        2 -1    0    0  501    0 +0.0000000000e+00 +0.0000000000e+00 +1.9211217663e+03 1.9211217663e+03 0.0000000000e+00 0.0000e+00 -1.0000e+00
       -2 -1    0    0    0  501 -0.0000000000e+00 -0.0000000000e+00 -1.4988004988e+02 1.4988004988e+02 0.0000000000e+00 0.0000e+00 1.0000e+00
      -13  1    1    2    0    0 -4.3781350755e+02 -1.6249578412e+02 +3.7559591873e+02 5.9929779027e+02 0.0000000000e+00 0.0000e+00 1.0000e+00
       13  1    1    2    0    0 +4.3781350755e+02 +1.6249578412e+02 +1.3956457977e+03 1.4717040259e+03 0.0000000000e+00 0.0000e+00 -1.0000e+00
<mgrwt>
<rscale>  0 0.10731968E+04</rscale>
<asrwt>0</asrwt>
<pdfrwt beam="1">  1        2 0.29555718E+00 0.10731968E+04</pdfrwt>
<pdfrwt beam="2">  1       -2 0.23058471E-01 0.10731968E+04</pdfrwt>
<totfact> 0.14382736E+02</totfact>
</mgrwt>
<rwgt>
<wgt id='morphing_basis_vector_1'> +1.6232622e-04 </wgt>
<wgt id='morphing_basis_vector_2'> +1.0423514e-04 </wgt>
<wgt id='morphing_basis_vector_3'> +1.5891938e-04 </wgt>
<wgt id='morphing_basis_vector_4'> +9.7884031e-05 </wgt>
<wgt id='morphing_basis_vector_5'> +1.5692767e-04 </wgt>
</rwgt>
</event>
<event>
 4      1 +7.8865000e-07 1.17879400e+03 7.81860800e-03 8.53051700e-02
        2 -1    0    0  501    0 +0.0000000000e+00 +0.0000000000e+00 +1.9821563660e+03 1.9821563660e+03 0.0000000000e+00 0.0000e+00 -1.0000e+00
       -2 -1    0    0    0  501 -0.0000000000e+00 -0.0000000000e+00 -1.7525794519e+02 1.7525794519e+02 0.0000000000e+00 0.0000e+00 1.0000e+00
      -13  1    1    2    0    0 +4.1118390554e+02 -3.4414812892e+02 +4.5560058127e+02 7.0362065666e+02 0.0000000000e+00 0.0000e+00 1.0000e+00
       13  1    1    2    0    0 -4.1118390554e+02 +3.4414812892e+02 +1.3512978395e+03 1.4537936545e+03 0.0000000000e+00 0.0000e+00 -1.0000e+00
<mgrwt>
<rscale>  0 0.11787937E+04</rscale>
<asrwt>0</asrwt>
<pdfrwt beam="1">  1        2 0.30494712E+00 0.11787937E+04</pdfrwt>
<pdfrwt beam="2">  1       -2 0.26962762E-01 0.11787937E+04</pdfrwt>
<totfact> 0.10076605E+02</totfact>
</mgrwt>
<rwgt>
<wgt id='morphing_basis_vector_1'> +2.3139963e-04 </wgt>
<wgt id='morphing_basis_vector_2'> +1.5145611e-04 </wgt>
<wgt id='morphing_basis_vector_3'> +2.3123520e-04 </wgt>
<wgt id='morphing_basis_vector_4'> +1.4501182e-04 </wgt>
<wgt id='morphing_basis_vector_5'> +2.3415411e-04 </wgt>
</rwgt>
</event>
<event>
 4      1 +7.8865000e-07 1.27665300e+03 7.81860800e-03 8.45789500e-02
        2 -1    0    0  501    0 +0.0000000000e+00 +0.0000000000e+00 +1.9999185623e+03 1.9999185623e+03 0.0000000000e+00 0.0000e+00 -1.0000e+00
       -2 -1    0    0    0  501 -0.0000000000e+00 -0.0000000000e+00 -2.0373878074e+02 2.0373878074e+02 0.0000000000e+00 0.0000e+00 1.0000e+00
      -13  1    1    2    0    0 -6.0003736596e+02 -1.3541124301e+02 +6.0373741220e+02 8.6190481387e+02 0.0000000000e+00 0.0000e+00 1.0000e+00
       13  1    1    2    0    0 +6.0003736596e+02 +1.3541124301e+02 +1.1924423694e+03 1.3417525292e+03 0.0000000000e+00 0.0000e+00 -1.0000e+00
<mgrwt>
<rscale>  0 0.12766534E+04</rscale>
<asrwt>0</asrwt>
<pdfrwt beam="1">  1        2 0.30767976E+00 0.12766534E+04</pdfrwt>
<pdfrwt beam="2">  1       -2 0.31344429E-01 0.12766534E+04</pdfrwt>
<totfact> 0.74919369E+01</totfact>
</mgrwt>
<rwgt>
<wgt id='morphing_basis_vector_1'> +3.1505187e-04 </wgt>
<wgt id='morphing_basis_vector_2'> +2.1247152e-04 </wgt>
<wgt id='morphing_basis_vector_3'> +3.1989653e-04 </wgt>
<wgt id='morphing_basis_vector_4'> +1.9943349e-04 </wgt>
<wgt id='morphing_basis_vector_5'> +3.2764424e-04 </wgt>
</rwgt>
</event>
<event>
 4      1 +7.8865000e-07 1.27867600e+03 7.81860800e-03 8.45646700e-02
        2 -1    0    0  501    0 +0.0000000000e+00 +0.0000000000e+00 +6.3240811219e+02 6.3240811219e+02 0.0000000000e+00 0.0000e+00 -1.0000e+00
       -2 -1    0    0    0  501 -0.0000000000e+00 -0.0000000000e+00 -6.4634352007e+02 6.4634352007e+02 0.0000000000e+00 0.0000e+00 1.0000e+00
      -13  1    1    2    0    0 -3.1047377081e+02 -2.5890353323e+02 -5.0230296602e+02 6.4477381426e+02 0.0000000000e+00 0.0000e+00 1.0000e+00
       13  1    1    2    0    0 +3.1047377081e+02 +2.5890353323e+02 +4.8836755814e+02 6.3397781801e+02 0.0000000000e+00 0.0000e+00 -1.0000e+00
<mgrwt>
<rscale>  0 0.12786757E+04</rscale>
<asrwt>0</asrwt>
<pdfrwt beam="1">  1        2 0.97293556E-01 0.12786757E+04</pdfrwt>
<pdfrwt beam="2">  1       -2 0.99437464E-01 0.12786757E+04</pdfrwt>
<totfact> 0.47356957E+01</totfact>
</mgrwt>
<rwgt>
<wgt id='morphing_basis_vector_1'> +3.1310848e-04 </wgt>
<wgt id='morphing_basis_vector_2'> +2.0225716e-04 </wgt>
<wgt id='morphing_basis_vector_3'> +3.1734533e-04 </wgt>
<wgt id='morphing_basis_vector_4'> +2.0755026e-04 </wgt>
<wgt id='morphing_basis_vector_5'> +3.3030611e-04 </wgt>
</rwgt>
</event>
<event>
 4      1 +7.8865000e-07 1.21151200e+03 7.81860800e-03 8.50543700e-02
        2 -1    0    0  501    0 +0.0000000000e+00 +0.0000000000e+00 +1.6406097197e+03 1.6406097197e+03 0.0000000000e+00 0.0000e+00 1.0000e+00
       -2 -1    0    0    0  501 -0.0000000000e+00 -0.0000000000e+00 -2.2366087319e+02 2.2366087319e+02 0.0000000000e+00 0.0000e+00 -1.0000e+00
      -13  1    1    2    0    0 +3.1039722246e+02 +1.1699513293e+02 -7.1478426313e+01 3.3932795681e+02 0.0000000000e+00 0.0000e+00 -1.0000e+00
       13  1    1    2    0    0 -3.1039722246e+02 -1.1699513293e+02 +1.4884272729e+03 1.5249426361e+03 0.0000000000e+00 0.0000e+00 1.0000e+00
<mgrwt>
<rscale>  0 0.12115118E+04</rscale>
<asrwt>0</asrwt>
<pdfrwt beam="1">  1        2 0.25240149E+00 0.12115118E+04</pdfrwt>
<pdfrwt beam="2">  1       -2 0.34409366E-01 0.12115118E+04</pdfrwt>
<totfact> 0.10084784E+02</totfact>
</mgrwt>
<rwgt>
<wgt id='morphing_basis_vector_1'> +2.5501239e-04 </wgt>
<wgt id='morphing_basis_vector_2'> +1.6359013e-04 </wgt>
<wgt id='morphing_basis_vector_3'> +2.5597923e-04 </wgt>
<wgt id='morphing_basis_vector_4'> +1.6557833e-04 </wgt>
<wgt id='morphing_basis_vector_5'> +2.6312327e-04 </wgt>
</rwgt>
</event>
<event>
 4      1 +7.8865000e-07 1.10988400e+03 7.81860800e-03 8.58626000e-02
        2 -1    0    0  501    0 +0.0000000000e+00 +0.0000000000e+00 +1.3902216372e+02 1.3902216372e+02 0.0000000000e+00 0.0000e+00 1.0000e+00
       -2 -1    0    0    0  501 -0.0000000000e+00 -0.0000000000e+00 -2.2151903708e+03 2.2151903708e+03 0.0000000000e+00 0.0000e+00 -1.0000e+00
      -13  1    1    2    0    0 -2.0207196049e+02 +5.1580143714e+02 -9.6849413806e+02 1.1157352263e+03 0.0000000000e+00 0.0000e+00 1.0000e+00
       13  1    1    2    0    0 +2.0207196049e+02 -5.1580143714e+02 -1.1076740690e+03 1.2384773082e+03 0.0000000000e+00 0.0000e+00 -1.0000e+00
<mgrwt>
<rscale>  0 0.11098839E+04</rscale>
<asrwt>0</asrwt>
<pdfrwt beam="1">  1        2 0.21388024E-01 0.11098839E+04</pdfrwt>
<pdfrwt beam="2">  1       -2 0.34079854E+00 0.11098839E+04</pdfrwt>
<totfact> 0.41538882E+00</totfact>
</mgrwt>
<rwgt>
<wgt id='morphing_basis_vector_1'> +1.9137950e-04 </wgt>
<wgt id='morphing_basis_vector_2'> +1.4071358e-04 </wgt>
<wgt id='morphing_basis_vector_3'> +1.8927666e-04 </wgt>
<wgt id='morphing_basis_vector_4'> +1.0093480e-04 </wgt>
<wgt id='morphing_basis_vector_5'> +1.8045478e-04 </wgt>
</rwgt>
</event>
<event>
 4      1 +7.8865000e-07 1.14538400e+03 7.81860800e-03 8.55702900e-02
        2 -1    0    0  501    0 +0.0000000000e+00 +0.0000000000e+00 +1.7673571199e+03 1.7673571199e+03 0.0000000000e+00 0.0000e+00 1.0000e+00
       -2 -1    0    0    0  501 -0.0000000000e+00 -0.0000000000e+00 -1.8557425190e+02 1.8557425190e+02 0.0000000000e+00 0.0000e+00 -1.0000e+00
      -13  1    1    2    0    0 -1.6303541438e+02 -5.2253982128e+02 +1.0779654229e+03 1.2089821604e+03 0.0000000000e+00 0.0000e+00 -1.0000e+00
       13  1    1    2    0    0 +1.6303541438e+02 +5.2253982128e+02 +5.0381744506e+02 7.4394921138e+02 0.0000000000e+00 0.0000e+00 1.0000e+00
<mgrwt>
<rscale>  0 0.11453837E+04</rscale>
<asrwt>0</asrwt>
<pdfrwt beam="1">  1        2 0.27190108E+00 0.11453837E+04</pdfrwt>
<pdfrwt beam="2">  1       -2 0.28549886E-01 0.11453837E+04</pdfrwt>
<totfact> 0.12031994E+02</totfact>
</mgrwt>
<rwgt>
<wgt id='morphing_basis_vector_1'> +2.2651274e-04 </wgt>
<wgt id='morphing_basis_vector_2'> +1.9228327e-04 </wgt>
<wgt id='morphing_basis_vector_3'> +2.2675353e-04 </wgt>
<wgt id='morphing_basis_vector_4'> +9.6736727e-05 </wgt>
<wgt id='morphing_basis_vector_5'> +2.0513969e-04 </wgt>
</rwgt>
</event>
<event>
 4      1 +7.8865000e-07 1.24821000e+03 7.81860800e-03 8.47827900e-02
        2 -1    0    0  501    0 +0.0000000000e+00 +0.0000000000e+00 +1.0621902669e+03 1.0621902669e+03 0.0000000000e+00 0.0000e+00 1.0000e+00
       -2 -1    0    0    0  501 -0.0000000000e+00 -0.0000000000e+00 -3.6670201113e+02 3.6670201113e+02 0.0000000000e+00 0.0000e+00 -1.0000e+00
      -13  1    1    2    0    0 -5.3947348825e+02 +1.3417462542e+02 +2.3003719338e+01 5.5638444059e+02 0.0000000000e+00 0.0000e+00 -1.0000e+00
       13  1    1    2    0    0 +5.3947348825e+02 -1.3417462542e+02 +6.7248453639e+02 8.7250783739e+02 0.0000000000e+00 0.0000e+00 1.0000e+00
<mgrwt>
<rscale>  0 0.12482104E+04</rscale>
<asrwt>0</asrwt>
<pdfrwt beam="1">  1        2 0.16341389E+00 0.12482104E+04</pdfrwt>
<pdfrwt beam="2">  1       -2 0.56415694E-01 0.12482104E+04</pdfrwt>
<totfact> 0.83795479E+01</totfact>
</mgrwt>
<rwgt>
<wgt id='morphing_basis_vector_1'> +2.8706914e-04 </wgt>
<wgt id='morphing_basis_vector_2'> +1.8827110e-04 </wgt>
<wgt id='morphing_basis_vector_3'> +2.8996133e-04 </wgt>
<wgt id='morphing_basis_vector_4'> +1.8512582e-04 </wgt>
<wgt id='morphing_basis_vector_5'> +2.9826134e-04 </wgt>
</rwgt>
</event>
<event>
 4      1 +7.8865000e-07 1.08946700e+03 7.81860800e-03 8.60358800e-02
        2 -1    0    0  501    0 +0.0000000000e+00 +0.0000000000e+00 +5.1903605056e+02 5.1903605056e+02 0.0000000000e+00 0.0000e+00 1.0000e+00
       -2 -1    0    0    0  501 -0.0000000000e+00 -0.0000000000e+00 -5.7170369654e+02 5.7170369654e+02 0.0000000000e+00 0.0000e+00 -1.0000e+00
      -13  1    1    2    0    0 -3.1660700533e+02 +4.4265145335e+02 -2.7579945740e+00 5.4423148706e+02 0.0000000000e+00 0.0000e+00 -1.0000e+00
       13  1    1    2    0    0 +3.1660700533e+02 -4.4265145335e+02 -4.9909651404e+01 5.4650826003e+02 0.0000000000e+00 0.0000e+00 1.0000e+00
<mgrwt>
<rscale>  0 0.10894674E+04</rscale>
<asrwt>0</asrwt>
<pdfrwt beam="1">  1        2 0.79851700E-01 0.10894674E+04</pdfrwt>
<pdfrwt beam="2">  1       -2 0.87954414E-01 0.10894674E+04</pdfrwt>
<totfact> 0.80822527E+01</totfact>
</mgrwt>
<rwgt>
<wgt id='morphing_basis_vector_1'> +1.7810486e-04 </wgt>
<wgt id='morphing_basis_vector_2'> +1.2975191e-04 </wgt>
<wgt id='morphing_basis_vector_3'> +1.7528756e-04 </wgt>
<wgt id='morphing_basis_vector_4'> +9.3955202e-05 </wgt>
<wgt id='morphing_basis_vector_5'> +1.6672510e-04 </wgt>
</rwgt>
</event>
<event>
 4      1 +7.8865000e-07 1.10065600e+03 7.81860800e-03 8.59404400e-02
        2 -1    0    0  501    0 +0.0000000000e+00 +0.0000000000e+00 +4.4170241399e+02 4.4170241399e+02 0.0000000000e+00 0.0000e+00 1.0000e+00
       -2 -1    0    0    0  501 -0.0000000000e+00 -0.0000000000e+00 -6.8566781400e+02 6.8566781400e+02 0.0000000000e+00 0.0000e+00 -1.0000e+00
      -13  1    1    2    0    0 -3.1426816532e+02 +2.0476646151e+02 -5.3445662675e+02 6.5294538008e+02 0.0000000000e+00 0.0000e+00 -1.0000e+00
       13  1    1    2    0    0 +3.1426816532e+02 -2.0476646151e+02 +2.9049122674e+02 4.7442484791e+02 0.0000000000e+00 0.0000e+00 1.0000e+00
<mgrwt>
<rscale>  0 0.11006564E+04</rscale>
<asrwt>0</asrwt>
<pdfrwt beam="1">  1        2 0.67954218E-01 0.11006564E+04</pdfrwt>
<pdfrwt beam="2">  1       -2 0.10548736E+00 0.11006564E+04</pdfrwt>
<totfact> 0.62912577E+01</totfact>
</mgrwt>
<rwgt>
<wgt id='morphing_basis_vector_1'> +1.7777013e-04 </wgt>
<wgt id='morphing_basis_vector_2'> +1.1300875e-04 </wgt>
<wgt id='morphing_basis_vector_3'> +1.7501006e-04 </wgt>
<wgt id='morphing_basis_vector_4'> +1.1007288e-04 </wgt>
<wgt id='morphing_basis_vector_5'> +1.7494481e-04 </wgt>
</rwgt>
</event>
<event>
 4      1 +7.8865000e-07 1.12420700e+03 7.81860800e-03 8.57433200e-02
        2 -1    0    0  501    0 +0.0000000000e+00 +0.0000000000e+00 +2.2930721392e+03 2.2930721392e+03 0.0000000000e+00 0.0000e+00 -1.0000e+00
       -2 -1    0    0    0  501 -0.0000000000e+00 -0.0000000000e+00 -1.3778913715e+02 1.3778913715e+02 0.0000000000e+00 0.0000e+00 1.0000e+00
      -13  1    1    2    0    0 +2.6679159262e+02 +4.9356582867e+02 +1.0035077493e+03 1.1497011716e+03 0.0000000000e+00 0.0000e+00 1.0000e+00
       13  1    1    2    0    0 -2.6679159262e+02 -4.9356582867e+02 +1.1517752527e+03 1.2811601047e+03 0.0000000000e+00 0.0000e+00 -1.0000e+00
<mgrwt>
<rscale>  0 0.11242072E+04</rscale>
<asrwt>0</asrwt>
<pdfrwt beam="1">  1        2 0.35278030E+00 0.11242072E+04</pdfrwt>
<pdfrwt beam="2">  1       -2 0.21198331E-01 0.11242072E+04</pdfrwt>
<totfact> 0.10192616E+02</totfact>
</mgrwt>
<rwgt>
<wgt id='morphing_basis_vector_1'> +1.9781083e-04 </wgt>
<wgt id='morphing_basis_vector_2'> +1.3879241e-04 </wgt>
<wgt id='morphing_basis_vector_3'> +1.9604602e-04 </wgt>
<wgt id='morphing_basis_vector_4'> +1.1156596e-04 </wgt>
<wgt id='morphing_basis_vector_5'> +1.9092916e-04 </wgt>
</rwgt>
</event>
<event>
 4      1 +7.8865000e-07 1.23041800e+03 7.81860800e-03 8.49132100e-02
        2 -1    0    0  501    0 +0.0000000000e+00 +0.0000000000e+00 +4.2395683422e+02 4.2395683422e+02 0.0000000000e+00 0.0000e+00 -1.0000e+00
       -2 -1    0    0    0  501 -0.0000000000e+00 -0.0000000000e+00 -8.9273781862e+02 8.9273781862e+02 0.0000000000e+00 0.0000e+00 1.0000e+00
      -13  1    1    2    0    0 -9.0445909533e+01 -5.9732174082e+02 -3.5876662658e+02 7.0262879030e+02 0.0000000000e+00 0.0000e+00 1.0000e+00
       13  1    1    2    0    0 +9.0445909533e+01 +5.9732174082e+02 -1.1001435782e+02 6.1406586254e+02 0.0000000000e+00 0.0000e+00 -1.0000e+00
<mgrwt>
<rscale>  0 0.12304183E+04</rscale>
<asrwt>0</asrwt>
<pdfrwt beam="1">  1        2 0.65224128E-01 0.12304183E+04</pdfrwt>
<pdfrwt beam="2">  1       -2 0.13734428E+00 0.12304183E+04</pdfrwt>
<totfact> 0.32839889E+01</totfact>
</mgrwt>
<rwgt>
<wgt id='morphing_basis_vector_1'> +2.7513754e-04 </wgt>
<wgt id='morphing_basis_vector_2'> +1.8790772e-04 </wgt>
<wgt id='morphing_basis_vector_3'> +2.7766717e-04 </wgt>
<wgt id='morphing_basis_vector_4'> +1.6856284e-04 </wgt>
<wgt id='morphing_basis_vector_5'> +2.8034786e-04 </wgt>
</rwgt>
</event>
<event>
 4      1 +7.8865000e-07 1.10617400e+03 7.81860800e-03 8.58938000e-02
        2 -1    0    0  501    0 +0.0000000000e+00 +0.0000000000e+00 +9.1316147299e+02 9.1316147299e+02 0.0000000000e+00 0.0000e+00 -1.0000e+00
       -2 -1    0    0    0  501 -0.0000000000e+00 -0.0000000000e+00 -3.3499579620e+02 3.3499579620e+02 0.0000000000e+00 0.0000e+00 1.0000e+00
      -13  1    1    2    0    0 +2.2409967659e+02 +1.5962119247e+02 -2.5229920765e+02 3.7330213007e+02 0.0000000000e+00 0.0000e+00 1.0000e+00
       13  1    1    2    0    0 -2.2409967659e+02 -1.5962119247e+02 +8.3046488444e+02 8.7485513911e+02 0.0000000000e+00 0.0000e+00 -1.0000e+00
<mgrwt>
<rscale>  0 0.11061740E+04</rscale>
<asrwt>0</asrwt>
<pdfrwt beam="1">  1        2 0.14048638E+00 0.11061740E+04</pdfrwt>
<pdfrwt beam="2">  1       -2 0.51537815E-01 0.11061740E+04</pdfrwt>
<totfact> 0.12579185E+02</totfact>
</mgrwt>
<rwgt>
<wgt id='morphing_basis_vector_1'> +1.8099541e-04 </wgt>
<wgt id='morphing_basis_vector_2'> +1.1480835e-04 </wgt>
<wgt id='morphing_basis_vector_3'> +1.7837254e-04 </wgt>
<wgt id='morphing_basis_vector_4'> +1.1266683e-04 </wgt>
<wgt id='morphing_basis_vector_5'> +1.7874180e-04 </wgt>
</rwgt>
</event>
<event>
 4      1 +7.8865000e-07 1.23598700e+03 7.81860800e-03 8.48721500e-02
        2 -1    0    0  501    0 +0.0000000000e+00 +0.0000000000e+00 +1.3627103252e+03 1.3627103252e+03 0.0000000000e+00 0.0000e+00 -1.0000e+00
       -2 -1    0    0    0  501 -0.0000000000e+00 -0.0000000000e+00 -2.8026192020e+02 2.8026192020e+02 0.0000000000e+00 0.0000e+00 1.0000e+00
      -13  1    1    2    0    0 -4.7260628277e+02 +5.9456880976e+00 +1.1970874601e+01 4.7279525331e+02 0.0000000000e+00 0.0000e+00 1.0000e+00
       13  1    1    2    0    0 +4.7260628277e+02 -5.9456880976e+00 +1.0704775304e+03 1.1701769921e+03 0.0000000000e+00 0.0000e+00 -1.0000e+00
<mgrwt>
<rscale>  0 0.12359868E+04</rscale>
<asrwt>0</asrwt>
<pdfrwt beam="1">  1        2 0.20964774E+00 0.12359868E+04</pdfrwt>
<pdfrwt beam="2">  1       -2 0.43117219E-01 0.12359868E+04</pdfrwt>
<totfact> 0.94754232E+01</totfact>
</mgrwt>
<rwgt>
<wgt id='morphing_basis_vector_1'> +2.7552687e-04 </wgt>
<wgt id='morphing_basis_vector_2'> +1.7814122e-04 </wgt>
<wgt id='morphing_basis_vector_3'> +2.7765167e-04 </wgt>
<wgt id='morphing_basis_vector_4'> +1.7938539e-04 </wgt>
<wgt id='morphing_basis_vector_5'> +2.8626164e-04 </wgt>
</rwgt>
</event>
<event>
 4      1 +7.8865000e-07 1.28039000e+03 7.81860800e-03 8.45525900e-02
        2 -1    0    0  501    0 +0.0000000000e+00 +0.0000000000e+00 +2.2719349751e+03 2.2719349751e+03 0.0000000000e+00 0.0000e+00 -1.0000e+00
       -2 -1    0    0    0  501 -0.0000000000e+00 -0.0000000000e+00 -1.8039663952e+02 1.8039663952e+02 0.0000000000e+00 0.0000e+00 1.0000e+00
      -13  1    1    2    0    0 +1.9325485389e+02 -3.3693153054e+02 +7.1072630580e+01 3.9486910951e+02 0.0000000000e+00 0.0000e+00 1.0000e+00
       13  1    1    2    0    0 -1.9325485389e+02 +3.3693153054e+02 +2.0204657050e+03 2.0574625051e+03 0.0000000000e+00 0.0000e+00 -1.0000e+00
<mgrwt>
<rscale>  0 0.12803897E+04</rscale>
<asrwt>0</asrwt>
<pdfrwt beam="1">  1        2 0.34952844E+00 0.12803897E+04</pdfrwt>
<pdfrwt beam="2">  1       -2 0.27753331E-01 0.12803897E+04</pdfrwt>
<totfact> 0.65149236E+01</totfact>
</mgrwt>
<rwgt>
<wgt id='morphing_basis_vector_1'> +3.1467133e-04 </wgt>
<wgt id='morphing_basis_vector_2'> +2.0320400e-04 </wgt>
<wgt id='morphing_basis_vector_3'> +3.1899499e-04 </wgt>
<wgt id='morphing_basis_vector_4'> +2.0878696e-04 </wgt>
<wgt id='morphing_basis_vector_5'> +3.3217571e-04 </wgt>
</rwgt>
</event>
<event>
 4      1 +7.8865000e-07 1.12482700e+03 7.81860800e-03 8.57381900e-02
        2 -1    0    0  501    0 +0.0000000000e+00 +0.0000000000e+00 +2.4072358998e+03 2.4072358998e+03 0.0000000000e+00 0.0000e+00 -1.0000e+00
       -2 -1    0    0    0  501 -0.0000000000e+00 -0.0000000000e+00 -1.3139928854e+02 1.3139928854e+02 0.0000000000e+00 0.0000e+00 1.0000e+00
      -13  1    1    2    0    0 -1.5581291074e+02 +3.8375315211e+02 +2.7920901017e+02 4.9950156783e+02 0.0000000000e+00 0.0000e+00 1.0000e+00
       13  1    1    2    0    0 +1.5581291074e+02 -3.8375315211e+02 +1.9966276011e+03 2.0391336206e+03 0.0000000000e+00 0.0000e+00 -1.0000e+00
<mgrwt>
<rscale>  0 0.11248272E+04</rscale>
<asrwt>0</asrwt>
<pdfrwt beam="1">  1        2 0.37034395E+00 0.11248272E+04</pdfrwt>
<pdfrwt beam="2">  1       -2 0.20215277E-01 0.11248272E+04</pdfrwt>
<totfact> 0.94822782E+01</totfact>
</mgrwt>
<rwgt>
<wgt id='morphing_basis_vector_1'> +1.9295914e-04 </wgt>
<wgt id='morphing_basis_vector_2'> +1.2324018e-04 </wgt>
<wgt id='morphing_basis_vector_3'> +1.9086685e-04 </wgt>
<wgt id='morphing_basis_vector_4'> +1.2056487e-04 </wgt>
<wgt id='morphing_basis_vector_5'> +1.9194918e-04 </wgt>
</rwgt>
</event>
<event>
 4      1 +7.8865000e-07 1.20469300e+03 7.81860800e-03 8.51059500e-02
        2 -1    0    0  501    0 +0.0000000000e+00 +0.0000000000e+00 +1.9544903305e+03 1.9544903305e+03 0.0000000000e+00 0.0000e+00 -1.0000e+00
       -2 -1    0    0    0  501 -0.0000000000e+00 -0.0000000000e+00 -1.8563464545e+02 1.8563464545e+02 0.0000000000e+00 0.0000e+00 1.0000e+00
      -13  1    1    2    0    0 -1.5234850430e+02 -5.7755935393e+02 +7.4640648150e+02 9.5598509910e+02 0.0000000000e+00 0.0000e+00 1.0000e+00
       13  1    1    2    0    0 +1.5234850430e+02 +5.7755935393e+02 +1.0224492035e+03 1.1841398768e+03 0.0000000000e+00 0.0000e+00 -1.0000e+00
<mgrwt>
<rscale>  0 0.12046927E+04</rscale>
<asrwt>0</asrwt>
<pdfrwt beam="1">  1        2 0.30069081E+00 0.12046927E+04</pdfrwt>
<pdfrwt beam="2">  1       -2 0.28559178E-01 0.12046927E+04</pdfrwt>
<totfact> 0.94218186E+01</totfact>
</mgrwt>
<rwgt>
<wgt id='morphing_basis_vector_1'> +2.5512272e-04 </wgt>
<wgt id='morphing_basis_vector_2'> +1.7655604e-04 </wgt>
<wgt id='morphing_basis_vector_3'> +2.5654839e-04 </wgt>
<wgt id='morphing_basis_vector_4'> +1.5222721e-04 </wgt>
<wgt id='morphing_basis_vector_5'> +2.5627393e-04 </wgt>
</rwgt>
</event>
<event>
 4      1 +7.8865000e-07 1.20574900e+03 7.81860800e-03 8.50979400e-02
        2 -1    0    0  501    0 +0.0000000000e+00 +0.0000000000e+00 +1.0407283045e+03 1.0407283045e+03 0.0000000000e+00 0.0000e+00 -1.0000e+00
       -2 -1    0    0    0  501 -0.0000000000e+00 -0.0000000000e+00 -3.4923391491e+02 3.4923391491e+02 0.0000000000e+00 0.0000e+00 1.0000e+00
      -13  1    1    2    0    0 +2.7462071727e+02 +4.2762358488e+02 -2.8114475771e+01 5.0898810639e+02 0.0000000000e+00 0.0000e+00 -1.0000e+00
       13  1    1    2    0    0 -2.7462071727e+02 -4.2762358488e+02 +7.1960886533e+02 8.8097411300e+02 0.0000000000e+00 0.0000e+00 1.0000e+00
<mgrwt>
<rscale>  0 0.12057489E+04</rscale>
<asrwt>0</asrwt>
<pdfrwt beam="1">  1        2 0.16011205E+00 0.12057489E+04</pdfrwt>
<pdfrwt beam="2">  1       -2 0.53728295E-01 0.12057489E+04</pdfrwt>
<totfact> 0.95564865E+01</totfact>
</mgrwt>
<rwgt>
<wgt id='morphing_basis_vector_1'> +2.5126622e-04 </wgt>
<wgt id='morphing_basis_vector_2'> +1.6302952e-04 </wgt>
<wgt id='morphing_basis_vector_3'> +2.5210245e-04 </wgt>
<wgt id='morphing_basis_vector_4'> +1.6087957e-04 </wgt>
<wgt id='morphing_basis_vector_5'> +2.5777547e-04 </wgt>
</rwgt>
</event>
<event>
 4      1 +7.8865000e-07 1.20066900e+03 7.81860800e-03 8.51365500e-02
        2 -1    0    0  501    0 +0.0000000000e+00 +0.0000000000e+00 +1.2830567620e+03 1.2830567620e+03 0.0000000000e+00 0.0000e+00 -1.0000e+00
       -2 -1    0    0    0  501 -0.0000000000e+00 -0.0000000000e+00 -2.8089304084e+02 2.8089304084e+02 0.0000000000e+00 0.0000e+00 1.0000e+00
      -13  1    1    2    0    0 +3.8422735925e+02 +1.1748668091e+02 -7.9937938596e+01 4.0966310283e+02 0.0000000000e+00 0.0000e+00 1.0000e+00
       13  1    1    2    0    0 -3.8422735925e+02 -1.1748668091e+02 +1.0821016597e+03 1.1542867000e+03 0.0000000000e+00 0.0000e+00 -1.0000e+00
<mgrwt>
<rscale>  0 0.12006693E+04</rscale>
<asrwt>0</asrwt>
<pdfrwt beam="1">  1        2 0.19739334E+00 0.12006693E+04</pdfrwt>
<pdfrwt beam="2">  1       -2 0.43214315E-01 0.12006693E+04</pdfrwt>
<totfact> 0.10502536E+02</totfact>
</mgrwt>
<rwgt>
<wgt id='morphing_basis_vector_1'> +2.4661635e-04 </wgt>
<wgt id='morphing_basis_vector_2'> +1.5836638e-04 </wgt>
<wgt id='morphing_basis_vector_3'> +2.4715106e-04 </wgt>
<wgt id='morphing_basis_vector_4'> +1.5918575e-04 </wgt>
<wgt id='morphing_basis_vector_5'> +2.5328983e-04 </wgt>
</rwgt>
</event>
<event>
 4      1 +7.8865000e-07 1.16313600e+03 7.81860800e-03 8.54282500e-02
        2 -1    0    0  501    0 +0.0000000000e+00 +0.0000000000e+00 +2.7668627997e+03 2.7668627997e+03 0.0000000000e+00 0.0000e+00 -1.0000e+00
       -2 -1    0    0    0  501 -0.0000000000e+00 -0.0000000000e+00 -1.2223999766e+02 1.2223999766e+02 0.0000000000e+00 0.0000e+00 1.0000e+00
      -13  1    1    2    0    0 +4.0315754755e+02 -1.7265713647e+02 +2.2709977864e+03 2.3129585904e+03 0.0000000000e+00 0.0000e+00 1.0000e+00
       13  1    1    2    0    0 -4.0315754755e+02 +1.7265713647e+02 +3.7362501561e+02 5.7614420696e+02 0.0000000000e+00 0.0000e+00 -1.0000e+00
<mgrwt>
<rscale>  0 0.11631359E+04</rscale>
<asrwt>0</asrwt>
<pdfrwt beam="1">  1        2 0.42567115E+00 0.11631359E+04</pdfrwt>
<pdfrwt beam="2">  1       -2 0.18806155E-01 0.11631359E+04</pdfrwt>
<totfact> 0.64930034E+01</totfact>
</mgrwt>
<rwgt>
<wgt id='morphing_basis_vector_1'> +2.7615804e-04 </wgt>
<wgt id='morphing_basis_vector_2'> +3.1265117e-04 </wgt>
<wgt id='morphing_basis_vector_3'> +2.8107486e-04 </wgt>
<wgt id='morphing_basis_vector_4'> +4.2165972e-05 </wgt>
<wgt id='morphing_basis_vector_5'> +2.1491178e-04 </wgt>
</rwgt>
</event>
<event>
 4      1 +7.8865000e-07 1.17883700e+03 7.81860800e-03 8.53048400e-02
        2 -1    0    0  501    0 +0.0000000000e+00 +0.0000000000e+00 +2.0070700619e+02 2.0070700619e+02 0.0000000000e+00 0.0000e+00 1.0000e+00
       -2 -1    0    0    0  501 -0.0000000000e+00 -0.0000000000e+00 -1.7309514443e+03 1.7309514443e+03 0.0000000000e+00 0.0000e+00 -1.0000e+00
      -13  1    1    2    0    0 -4.8809829689e+02 -3.2389176634e+02 -8.7217599550e+02 1.0506363742e+03 0.0000000000e+00 0.0000e+00 -1.0000e+00
       13  1    1    2    0    0 +4.8809829689e+02 +3.2389176634e+02 -6.5806844265e+02 8.8102207631e+02 0.0000000000e+00 0.0000e+00 1.0000e+00
<mgrwt>
<rscale>  0 0.11788369E+04</rscale>
<asrwt>0</asrwt>
<pdfrwt beam="1">  1        2 0.30878000E-01 0.11788369E+04</pdfrwt>
<pdfrwt beam="2">  1       -2 0.26630023E+00 0.11788369E+04</pdfrwt>
<totfact> 0.84716910E+00</totfact>
</mgrwt>
<rwgt>
<wgt id='morphing_basis_vector_1'> +2.3539472e-04 </wgt>
<wgt id='morphing_basis_vector_2'> +1.6339101e-04 </wgt>
<wgt id='morphing_basis_vector_3'> +2.3568493e-04 </wgt>
<wgt id='morphing_basis_vector_4'> +1.3829264e-04 </wgt>
<wgt id='morphing_basis_vector_5'> +2.3373767e-04 </wgt>
</rwgt>
</event>
<event>
 4      1 +7.8865000e-07 1.21133200e+03 7.81860800e-03 8.50557300e-02
        2 -1    0    0  501    0 +0.0000000000e+00 +0.0000000000e+00 +7.7831102539e+02 7.7831102539e+02 0.0000000000e+00 0.0000e+00 1.0000e+00
       -2 -1    0    0    0  501 -0.0000000000e+00 -0.0000000000e+00 -4.7131694974e+02 4.7131694974e+02 0.0000000000e+00 0.0000e+00 -1.0000e+00
      -13  1    1    2    0    0 -1.7604910732e+02 +4.0158869014e+02 +5.8451511052e+02 7.3070149764e+02 0.0000000000e+00 0.0000e+00 1.0000e+00
       13  1    1    2    0    0 +1.7604910732e+02 -4.0158869014e+02 -2.7752103487e+02 5.1892647749e+02 0.0000000000e+00 0.0000e+00 -1.0000e+00
<mgrwt>
<rscale>  0 0.12113318E+04</rscale>
<asrwt>0</asrwt>
<pdfrwt beam="1">  1        2 0.11974016E+00 0.12113318E+04</pdfrwt>
<pdfrwt beam="2">  1       -2 0.72510300E-01 0.12113318E+04</pdfrwt>
<totfact> 0.76143851E+01</totfact>
</mgrwt>
<rwgt>
<wgt id='morphing_basis_vector_1'> +3.2637700e-04 </wgt>
<wgt id='morphing_basis_vector_2'> +3.7821990e-04 </wgt>
<wgt id='morphing_basis_vector_3'> +3.3737950e-04 </wgt>
<wgt id='morphing_basis_vector_4'> +4.2250640e-05 </wgt>
<wgt id='morphing_basis_vector_5'> +2.5455930e-04 </wgt>
</rwgt>
</event>
<event>
 4      1 +7.8865000e-07 1.11978800e+03 7.81860800e-03 8.57799300e-02
        2 -1    0    0  501    0 +0.0000000000e+00 +0.0000000000e+00 +9.8010495867e+02 9.8010495867e+02 0.0000000000e+00 0.0000e+00 -1.0000e+00
       -2 -1    0    0    0  501 -0.0000000000e+00 -0.0000000000e+00 -3.1984442457e+02 3.1984442457e+02 0.0000000000e+00 0.0000e+00 1.0000e+00
      -13  1    1    2    0    0 +3.2382619539e+02 -3.4422008551e+02 -1.8388373598e+01 4.7295771943e+02 0.0000000000e+00 0.0000e+00 1.0000e+00
       13  1    1    2    0    0 -3.2382619539e+02 +3.4422008551e+02 +6.7864890770e+02 8.2699166381e+02 0.0000000000e+00 0.0000e+00 -1.0000e+00
<mgrwt>
<rscale>  0 0.11197877E+04</rscale>
<asrwt>0</asrwt>
<pdfrwt beam="1">  1        2 0.15078538E+00 0.11197877E+04</pdfrwt>
<pdfrwt beam="2">  1       -2 0.49206835E-01 0.11197877E+04</pdfrwt>
<totfact> 0.12472782E+02</totfact>
</mgrwt>
<rwgt>
<wgt id='morphing_basis_vector_1'> +1.9013520e-04 </wgt>
<wgt id='morphing_basis_vector_2'> +1.2232258e-04 </wgt>
<wgt id='morphing_basis_vector_3'> +1.8792250e-04 </wgt>
<wgt id='morphing_basis_vector_4'> +1.1762011e-04 </wgt>
<wgt id='morphing_basis_vector_5'> +1.8826239e-04 </wgt>
</rwgt>
</event>
<event>
 4      1 +7.8865000e-07 1.25022100e+03 7.81860800e-03 8.47681900e-02
        2 -1    0    0  501    0 +0.0000000000e+00 +0.0000000000e+00 +9.4526169829e+02 9.4526169829e+02 0.0000000000e+00 0.0000e+00 -1.0000e+00
       -2 -1    0    0    0  501 -0.0000000000e+00 -0.0000000000e+00 -4.1339155523e+02 4.1339155523e+02 0.0000000000e+00 0.0000e+00 1.0000e+00
      -13  1    1    2    0    0 +9.6930274539e+00 +5.7977251631e+02 +1.2158332338e+01 5.7998099149e+02 0.0000000000e+00 0.0000e+00 1.0000e+00
       13  1    1    2    0    0 -9.6930274539e+00 -5.7977251631e+02 +5.1971181071e+02 7.7867226202e+02 0.0000000000e+00 0.0000e+00 -1.0000e+00
<mgrwt>
<rscale>  0 0.12502211E+04</rscale>
<asrwt>0</asrwt>
<pdfrwt beam="1">  1        2 0.14542488E+00 0.12502211E+04</pdfrwt>
<pdfrwt beam="2">  1       -2 0.63598701E-01 0.12502211E+04</pdfrwt>
<totfact> 0.77492329E+01</totfact>
</mgrwt>
<rwgt>
<wgt id='morphing_basis_vector_1'> +2.8957670e-04 </wgt>
<wgt id='morphing_basis_vector_2'> +1.9169670e-04 </wgt>
<wgt id='morphing_basis_vector_3'> +2.9269778e-04 </wgt>
<wgt id='morphing_basis_vector_4'> +1.8507690e-04 </wgt>
<wgt id='morphing_basis_vector_5'> +3.0020046e-04 </wgt>
</rwgt>
</event>
<event>
 4      1 +7.8865000e-07 1.08057200e+03 7.81860800e-03 8.61125900e-02
        2 -1    0    0  501    0 +0.0000000000e+00 +0.0000000000e+00 +9.5987525256e+02 9.5987525256e+02 0.0000000000e+00 0.0000e+00 -1.0000e+00
       -2 -1    0    0    0  501 -0.0000000000e+00 -0.0000000000e+00 -3.0411155315e+02 3.0411155315e+02 0.0000000000e+00 0.0000e+00 1.0000e+00
      -13  1    1    2    0    0 +1.3795407920e+02 +2.2156896784e+02 -2.2547360094e+02 3.4490937969e+02 0.0000000000e+00 0.0000e+00 1.0000e+00
       13  1    1    2    0    0 -1.3795407920e+02 -2.2156896784e+02 +8.8123730035e+02 9.1907742602e+02 0.0000000000e+00 0.0000e+00 -1.0000e+00
<mgrwt>
<rscale>  0 0.10805724E+04</rscale>
<asrwt>0</asrwt>
<pdfrwt beam="1">  1        2 0.14767311E+00 0.10805724E+04</pdfrwt>
<pdfrwt beam="2">  1       -2 0.46786393E-01 0.10805724E+04</pdfrwt>
<totfact> 0.14204926E+02</totfact>
</mgrwt>
<rwgt>
<wgt id='morphing_basis_vector_1'> +1.6580764e-04 </wgt>
<wgt id='morphing_basis_vector_2'> +1.0484582e-04 </wgt>
<wgt id='morphing_basis_vector_3'> +1.6255574e-04 </wgt>
<wgt id='morphing_basis_vector_4'> +1.0196572e-04 </wgt>
<wgt id='morphing_basis_vector_5'> +1.6168416e-04 </wgt>
</rwgt>
</event>
<event>
 4      1 +7.8865000e-07 1.11724100e+03 7.81860800e-03 8.58011000e-02
        2 -1    0    0  501    0 +0.0000000000e+00 +0.0000000000e+00 +3.7346302281e+02 3.7346302281e+02 0.0000000000e+00 0.0000e+00 -1.0000e+00
       -2 -1    0    0    0  501 -0.0000000000e+00 -0.0000000000e+00 -8.3557650777e+02 8.3557650777e+02 0.0000000000e+00 0.0000e+00 1.0000e+00
      -13  1    1    2    0    0 +3.0203311932e+02 -2.9146284648e+02 -6.2996689241e+02 7.5698935368e+02 0.0000000000e+00 0.0000e+00 1.0000e+00
       13  1    1    2    0    0 -3.0203311932e+02 +2.9146284648e+02 +1.6785340745e+02 4.5205017691e+02 0.0000000000e+00 0.0000e+00 -1.0000e+00
<mgrwt>
<rscale>  0 0.11172411E+04</rscale>
<asrwt>0</asrwt>
<pdfrwt beam="1">  1        2 0.57455851E-01 0.11172411E+04</pdfrwt>
<pdfrwt beam="2">  1       -2 0.12855023E+00 0.11172411E+04</pdfrwt>
<totfact> 0.45738747E+01</totfact>
</mgrwt>
<rwgt>
<wgt id='morphing_basis_vector_1'> +1.8815473e-04 </wgt>
<wgt id='morphing_basis_vector_2'> +1.2015457e-04 </wgt>
<wgt id='morphing_basis_vector_3'> +1.8584739e-04 </wgt>
<wgt id='morphing_basis_vector_4'> +1.1708738e-04 </wgt>
<wgt id='morphing_basis_vector_5'> +1.8648026e-04 </wgt>
</rwgt>
</event>
<event>
 4      1 +7.8865000e-07 1.24159900e+03 7.81860800e-03 8.48309900e-02
        2 -1    0    0  501    0 +0.0000000000e+00 +0.0000000000e+00 +1.1695606161e+03 1.1695606161e+03 0.0000000000e+00 0.0000e+00 -1.0000e+00
       -2 -1    0    0    0  501 -0.0000000000e+00 -0.0000000000e+00 -3.2951840436e+02 3.2951840436e+02 0.0000000000e+00 0.0000e+00 1.0000e+00
      -13  1    1    2    0    0 +2.4512762191e+01 +3.3247118356e+02 -2.1227373702e+02 3.9521905677e+02 0.0000000000e+00 0.0000e+00 1.0000e+00
       13  1    1    2    0    0 -2.4512762191e+01 -3.3247118356e+02 +1.0523159487e+03 1.1038599636e+03 0.0000000000e+00 0.0000e+00 -1.0000e+00
<mgrwt>
<rscale>  0 0.12415986E+04</rscale>
<asrwt>0</asrwt>
<pdfrwt beam="1">  1        2 0.17993240E+00 0.12415986E+04</pdfrwt>
<pdfrwt beam="2">  1       -2 0.50695140E-01 0.12415986E+04</pdfrwt>
<totfact> 0.89510054E+01</totfact>
</mgrwt>
<rwgt>
<wgt id='morphing_basis_vector_1'> +2.7986459e-04 </wgt>
<wgt id='morphing_basis_vector_2'> +1.7999455e-04 </wgt>
<wgt id='morphing_basis_vector_3'> +2.8218519e-04 </wgt>
<wgt id='morphing_basis_vector_4'> +1.8360424e-04 </wgt>
<wgt id='morphing_basis_vector_5'> +2.9183600e-04 </wgt>
</rwgt>
</event>
<event>
 4      1 +7.8865000e-07 1.28152600e+03 7.81860800e-03 8.45445900e-02
        2 -1    0    0  501    0 +0.0000000000e+00 +0.0000000000e+00 +1.9610991548e+03 1.9610991548e+03 0.0000000000e+00 0.0000e+00 -1.0000e+00
       -2 -1    0    0    0  501 -0.0000000000e+00 -0.0000000000e+00 -2.0936070300e+02 2.0936070300e+02 0.0000000000e+00 0.0000e+00 1.0000e+00
      -13  1    1    2    0    0 +1.7460186816e+01 +4.8745662745e+02 +1.7211972124e+02 5.1724657583e+02 0.0000000000e+00 0.0000e+00 1.0000e+00
       13  1    1    2    0    0 -1.7460186816e+01 -4.8745662745e+02 +1.5796187306e+03 1.6532132820e+03 0.0000000000e+00 0.0000e+00 -1.0000e+00
<mgrwt>
<rscale>  0 0.12815258E+04</rscale>
<asrwt>0</asrwt>
<pdfrwt beam="1">  1        2 0.30170755E+00 0.12815258E+04</pdfrwt>
<pdfrwt beam="2">  1       -2 0.32209340E-01 0.12815258E+04</pdfrwt>
<totfact> 0.74986352E+01</totfact>
</mgrwt>
<rwgt>
<wgt id='morphing_basis_vector_1'> +3.1614376e-04 </wgt>
<wgt id='morphing_basis_vector_2'> +2.0513152e-04 </wgt>
<wgt id='morphing_basis_vector_3'> +3.2060796e-04 </wgt>
<wgt id='morphing_basis_vector_4'> +2.0884468e-04 </wgt>
<wgt id='morphing_basis_vector_5'> +3.3336571e-04 </wgt>
</rwgt>
</event>
<event>
 4      1 +7.8865000e-07 1.17437700e+03 7.81860800e-03 8.53396900e-02
        2 -1    0    0  501    0 +0.0000000000e+00 +0.0000000000e+00 +1.7606119061e+03 1.7606119061e+03 0.0000000000e+00 0.0000e+00 -1.0000e+00
       -2 -1    0    0    0  501 -0.0000000000e+00 -0.0000000000e+00 -1.9583549747e+02 1.9583549747e+02 0.0000000000e+00 0.0000e+00 1.0000e+00
      -13  1    1    2    0    0 +4.3345879498e+02 +2.4302217294e+02 +2.6128017261e+02 5.6143889435e+02 0.0000000000e+00 0.0000e+00 1.0000e+00
       13  1    1    2    0    0 -4.3345879498e+02 -2.4302217294e+02 +1.3034962360e+03 1.3950085092e+03 0.0000000000e+00 0.0000e+00 -1.0000e+00
<mgrwt>
<rscale>  0 0.11743770E+04</rscale>
<asrwt>0</asrwt>
<pdfrwt beam="1">  1        2 0.27086336E+00 0.11743770E+04</pdfrwt>
<pdfrwt beam="2">  1       -2 0.30128539E-01 0.11743770E+04</pdfrwt>
<totfact> 0.11011120E+02</totfact>
</mgrwt>
<rwgt>
<wgt id='morphing_basis_vector_1'> +2.2745825e-04 </wgt>
<wgt id='morphing_basis_vector_2'> +1.4720204e-04 </wgt>
<wgt id='morphing_basis_vector_3'> +2.2704831e-04 </wgt>
<wgt id='morphing_basis_vector_4'> +1.4389241e-04 </wgt>
<wgt id='morphing_basis_vector_5'> +2.3053312e-04 </wgt>
</rwgt>
</event>
<event>
 4      1 +7.8865000e-07 1.18711800e+03 7.81860800e-03 8.52405600e-02
        2 -1    0    0  501    0 +0.0000000000e+00 +0.0000000000e+00 +9.7381744179e+02 9.7381744179e+02 0.0000000000e+00 0.0000e+00 -1.0000e+00
       -2 -1    0    0    0  501 -0.0000000000e+00 -0.0000000000e+00 -3.6178455899e+02 3.6178455899e+02 0.0000000000e+00 0.0000e+00 1.0000e+00
      -13  1    1    2    0    0 +5.8190881902e+02 +9.5529284621e+01 +3.8206047429e+02 7.0264779505e+02 0.0000000000e+00 0.0000e+00 1.0000e+00
       13  1    1    2    0    0 -5.8190881902e+02 -9.5529284621e+01 +2.2997240851e+02 6.3295420573e+02 0.0000000000e+00 0.0000e+00 -1.0000e+00
<mgrwt>
<rscale>  0 0.11871177E+04</rscale>
<asrwt>0</asrwt>
<pdfrwt beam="1">  1        2 0.14981807E+00 0.11871177E+04</pdfrwt>
<pdfrwt beam="2">  1       -2 0.55659163E-01 0.11871177E+04</pdfrwt>
<totfact> 0.98107336E+01</totfact>
</mgrwt>
<rwgt>
<wgt id='morphing_basis_vector_1'> +2.4877720e-04 </wgt>
<wgt id='morphing_basis_vector_2'> +1.8914858e-04 </wgt>
<wgt id='morphing_basis_vector_3'> +2.5029155e-04 </wgt>
<wgt id='morphing_basis_vector_4'> +1.3036517e-04 </wgt>
<wgt id='morphing_basis_vector_5'> +2.3996129e-04 </wgt>
</rwgt>
</event>
<event>
 4      1 +7.8865000e-07 1.24032900e+03 7.81860800e-03 8.48402800e-02
        2 -1    0    0  501    0 +0.0000000000e+00 +0.0000000000e+00 +6.1596426279e+02 6.1596426279e+02 0.0000000000e+00 0.0000e+00 -1.0000e+00
       -2 -1    0    0    0  501 -0.0000000000e+00 -0.0000000000e+00 -6.2439299889e+02 6.2439299889e+02 0.0000000000e+00 0.0000e+00 1.0000e+00
      -13  1    1    2    0    0 +4.1157963590e+02 +4.1878623085e+02 -2.0377866465e+02 6.2153475205e+02 0.0000000000e+00 0.0000e+00 1.0000e+00
       13  1    1    2    0    0 -4.1157963590e+02 -4.1878623085e+02 +1.9534992855e+02 6.1882250963e+02 0.0000000000e+00 0.0000e+00 -1.0000e+00
<mgrwt>
<rscale>  0 0.12403286E+04</rscale>
<asrwt>0</asrwt>
<pdfrwt beam="1">  1        2 0.94763733E-01 0.12403286E+04</pdfrwt>
<pdfrwt beam="2">  1       -2 0.96060461E-01 0.12403286E+04</pdfrwt>
<totfact> 0.53227005E+01</totfact>
</mgrwt>
<rwgt>
<wgt id='morphing_basis_vector_1'> +2.8155627e-04 </wgt>
<wgt id='morphing_basis_vector_2'> +1.8760790e-04 </wgt>
<wgt id='morphing_basis_vector_3'> +2.8426707e-04 </wgt>
<wgt id='morphing_basis_vector_4'> +1.7797941e-04 </wgt>
<wgt id='morphing_basis_vector_5'> +2.9024587e-04 </wgt>
</rwgt>
</event>
<event>
 4      1 +7.8865000e-07 1.12836600e+03 7.81860800e-03 8.57090200e-02
        2 -1    0    0  501    0 +0.0000000000e+00 +0.0000000000e+00 +4.6615163427e+02 4.6615163427e+02 0.0000000000e+00 0.0000e+00 -1.0000e+00
       -2 -1    0    0    0  501 -0.0000000000e+00 -0.0000000000e+00 -6.8283019108e+02 6.8283019108e+02 0.0000000000e+00 0.0000e+00 1.0000e+00
      -13  1    1    2    0    0 +3.6639907408e+02 -2.6405488467e+02 -4.5264297051e+02 6.3942077098e+02 0.0000000000e+00 0.0000e+00 1.0000e+00
       13  1    1    2    0    0 -3.6639907408e+02 +2.6405488467e+02 +2.3596441370e+02 5.0956105437e+02 0.0000000000e+00 0.0000e+00 -1.0000e+00
<mgrwt>
<rscale>  0 0.11283659E+04</rscale>
<asrwt>0</asrwt>
<pdfrwt beam="1">  1        2 0.71715636E-01 0.11283659E+04</pdfrwt>
<pdfrwt beam="2">  1       -2 0.10505080E+00 0.11283659E+04</pdfrwt>
<totfact> 0.59674858E+01</totfact>
</mgrwt>
<rwgt>
<wgt id='morphing_basis_vector_1'> +1.9544549e-04 </wgt>
<wgt id='morphing_basis_vector_2'> +1.2534254e-04 </wgt>
<wgt id='morphing_basis_vector_3'> +1.9347099e-04 </wgt>
<wgt id='morphing_basis_vector_4'> +1.2185791e-04 </wgt>
<wgt id='morphing_basis_vector_5'> +1.9451691e-04 </wgt>
</rwgt>
</event>
<event>
 4      1 +7.8865000e-07 1.15041200e+03 7.81860800e-03 8.55297900e-02
        2 -1    0    0  501    0 +0.0000000000e+00 +0.0000000000e+00 +1.3263503922e+03 1.3263503922e+03 0.0000000000e+00 0.0000e+00 1.0000e+00
       -2 -1    0    0    0  501 -0.0000000000e+00 -0.0000000000e+00 -2.4945274625e+02 2.4945274625e+02 0.0000000000e+00 0.0000e+00 -1.0000e+00
      -13  1    1    2    0    0 +4.7025095438e+02 -7.2401314966e+01 +9.5683864131e+01 4.8531774371e+02 0.0000000000e+00 0.0000e+00 -1.0000e+00
       13  1    1    2    0    0 -4.7025095438e+02 +7.2401314966e+01 +9.8121378184e+02 1.0904853948e+03 0.0000000000e+00 0.0000e+00 1.0000e+00
<mgrwt>
<rscale>  0 0.11504117E+04</rscale>
<asrwt>0</asrwt>
<pdfrwt beam="1">  1        2 0.20405390E+00 0.11504117E+04</pdfrwt>
<pdfrwt beam="2">  1       -2 0.38377346E-01 0.11504117E+04</pdfrwt>
<totfact> 0.12438244E+02</totfact>
</mgrwt>
<rwgt>
<wgt id='morphing_basis_vector_1'> +2.1033029e-04 </wgt>
<wgt id='morphing_basis_vector_2'> +1.3551350e-04 </wgt>
<wgt id='morphing_basis_vector_3'> +2.0906265e-04 </wgt>
<wgt id='morphing_basis_vector_4'> +1.3206415e-04 </wgt>
<wgt id='morphing_basis_vector_5'> +2.1121231e-04 </wgt>
</rwgt>
</event>
<event>
 4      1 +7.8865000e-07 1.12583200e+03 7.81860800e-03 8.57299000e-02
        2 -1    0    0  501    0 +0.0000000000e+00 +0.0000000000e+00 +1.2063889779e+03 1.2063889779e+03 0.0000000000e+00 0.0000e+00 1.0000e+00
       -2 -1    0    0    0  501 -0.0000000000e+00 -0.0000000000e+00 -2.6266364281e+02 2.6266364281e+02 0.0000000000e+00 0.0000e+00 -1.0000e+00
      -13  1    1    2    0    0 +7.2626709811e+01 +3.2346912654e+02 -1.2176602736e+02 3.5317683987e+02 0.0000000000e+00 0.0000e+00 -1.0000e+00
       13  1    1    2    0    0 -7.2626709811e+01 -3.2346912654e+02 +1.0654913625e+03 1.1158757808e+03 0.0000000000e+00 0.0000e+00 1.0000e+00
<mgrwt>
<rscale>  0 0.11258322E+04</rscale>
<asrwt>0</asrwt>
<pdfrwt beam="1">  1        2 0.18559830E+00 0.11258322E+04</pdfrwt>
<pdfrwt beam="2">  1       -2 0.40409792E-01 0.11258322E+04</pdfrwt>
<totfact> 0.13269207E+02</totfact>
</mgrwt>
<rwgt>
<wgt id='morphing_basis_vector_1'> +1.9340813e-04 </wgt>
<wgt id='morphing_basis_vector_2'> +1.2306780e-04 </wgt>
<wgt id='morphing_basis_vector_3'> +1.9133180e-04 </wgt>
<wgt id='morphing_basis_vector_4'> +1.2135421e-04 </wgt>
<wgt id='morphing_basis_vector_5'> +1.9270348e-04 </wgt>
</rwgt>
</event>
<event>
 4      1 +7.8865000e-07 1.14113700e+03 7.81860800e-03 8.56046700e-02
        2 -1    0    0  501    0 +0.0000000000e+00 +0.0000000000e+00 +1.0041339718e+03 1.0041339718e+03 0.0000000000e+00 0.0000e+00 1.0000e+00
       -2 -1    0    0    0  501 -0.0000000000e+00 -0.0000000000e+00 -3.2420829461e+02 3.2420829461e+02 0.0000000000e+00 0.0000e+00 -1.0000e+00
      -13  1    1    2    0    0 -4.6211946947e+02 +1.9767963825e+02 +6.5429314817e+02 8.2506434124e+02 0.0000000000e+00 0.0000e+00 1.0000e+00
       13  1    1    2    0    0 +4.6211946947e+02 -1.9767963825e+02 +2.5632529040e+01 5.0327792519e+02 0.0000000000e+00 0.0000e+00 -1.0000e+00
<mgrwt>
<rscale>  0 0.11411373E+04</rscale>
<asrwt>0</asrwt>
<pdfrwt beam="1">  1        2 0.15448215E+00 0.11411373E+04</pdfrwt>
<pdfrwt beam="2">  1       -2 0.49878200E-01 0.11411373E+04</pdfrwt>
<totfact> 0.11716181E+02</totfact>
</mgrwt>
<rwgt>
<wgt id='morphing_basis_vector_1'> +2.3772433e-04 </wgt>
<wgt id='morphing_basis_vector_2'> +2.3277621e-04 </wgt>
<wgt id='morphing_basis_vector_3'> +2.3890036e-04 </wgt>
<wgt id='morphing_basis_vector_4'> +7.1208948e-05 </wgt>
<wgt id='morphing_basis_vector_5'> +2.0034368e-04 </wgt>
</rwgt>
</event>
<event>
 4      1 +7.8865000e-07 1.10457100e+03 7.81860800e-03 8.59073200e-02
        2 -1    0    0  501    0 +0.0000000000e+00 +0.0000000000e+00 +2.1041068163e+03 2.1041068163e+03 0.0000000000e+00 0.0000e+00 -1.0000e+00
       -2 -1    0    0    0  501 -0.0000000000e+00 -0.0000000000e+00 -1.4496383561e+02 1.4496383561e+02 0.0000000000e+00 0.0000e+00 1.0000e+00
      -13  1    1    2    0    0 +4.3748752056e+02 +3.2792665426e+02 +8.2069747138e+02 9.8614175490e+02 0.0000000000e+00 0.0000e+00 1.0000e+00
       13  1    1    2    0    0 -4.3748752056e+02 -3.2792665426e+02 +1.1384455093e+03 1.2629288970e+03 0.0000000000e+00 0.0000e+00 -1.0000e+00
<mgrwt>
<rscale>  0 0.11045712E+04</rscale>
<asrwt>0</asrwt>
<pdfrwt beam="1">  1        2 0.32370872E+00 0.11045712E+04</pdfrwt>
<pdfrwt beam="2">  1       -2 0.22302130E-01 0.11045712E+04</pdfrwt>
<totfact> 0.11997702E+02</totfact>
</mgrwt>
<rwgt>
<wgt id='morphing_basis_vector_1'> +1.8380324e-04 </wgt>
<wgt id='morphing_basis_vector_2'> +1.2558498e-04 </wgt>
<wgt id='morphing_basis_vector_3'> +1.8131589e-04 </wgt>
<wgt id='morphing_basis_vector_4'> +1.0574476e-04 </wgt>
<wgt id='morphing_basis_vector_5'> +1.7723499e-04 </wgt>
</rwgt>
</event>
<event>
 4      1 +7.8865000e-07 1.23025200e+03 7.81860800e-03 8.49144500e-02
        2 -1    0    0  501    0 +0.0000000000e+00 +0.0000000000e+00 +5.4626399109e+02 5.4626399109e+02 0.0000000000e+00 0.0000e+00 1.0000e+00
       -2 -1    0    0    0  501 -0.0000000000e+00 -0.0000000000e+00 -6.9266844834e+02 6.9266844834e+02 0.0000000000e+00 0.0000e+00 -1.0000e+00
      -13  1    1    2    0    0 +5.9244009786e+01 -6.0016103932e+02 +4.8800045439e+01 6.0504922961e+02 0.0000000000e+00 0.0000e+00 -1.0000e+00
       13  1    1    2    0    0 -5.9244009786e+01 +6.0016103932e+02 -1.9520450268e+02 6.3388320982e+02 0.0000000000e+00 0.0000e+00 1.0000e+00
<mgrwt>
<rscale>  0 0.12302517E+04</rscale>
<asrwt>0</asrwt>
<pdfrwt beam="1">  1        2 0.84040614E-01 0.12302517E+04</pdfrwt>
<pdfrwt beam="2">  1       -2 0.10656438E+00 0.12302517E+04</pdfrwt>
<totfact> 0.47664860E+01</totfact>
</mgrwt>
<rwgt>
<wgt id='morphing_basis_vector_1'> +2.8956196e-04 </wgt>
<wgt id='morphing_basis_vector_2'> +2.3152025e-04 </wgt>
<wgt id='morphing_basis_vector_3'> +2.9433840e-04 </wgt>
<wgt id='morphing_basis_vector_4'> +1.4318969e-04 </wgt>
<wgt id='morphing_basis_vector_5'> +2.7845126e-04 </wgt>
</rwgt>
</event>
<event>
 4      1 +7.8865000e-07 1.10204300e+03 7.81860800e-03 8.59286900e-02
        2 -1    0    0  501    0 +0.0000000000e+00 +0.0000000000e+00 +6.5308505551e+02 6.5308505551e+02 0.0000000000e+00 0.0000e+00 1.0000e+00
       -2 -1    0    0    0  501 -0.0000000000e+00 -0.0000000000e+00 -4.6490804975e+02 4.6490804975e+02 0.0000000000e+00 0.0000e+00 -1.0000e+00
      -13  1    1    2    0    0 -5.2080535721e+02 -2.3570851628e+01 +2.7508233681e+02 5.8946085296e+02 0.0000000000e+00 0.0000e+00 -1.0000e+00
       13  1    1    2    0    0 +5.2080535721e+02 +2.3570851628e+01 -8.6905331046e+01 5.2853225229e+02 0.0000000000e+00 0.0000e+00 1.0000e+00
<mgrwt>
<rscale>  0 0.11020426E+04</rscale>
<asrwt>0</asrwt>
<pdfrwt beam="1">  1        2 0.10047462E+00 0.11020426E+04</pdfrwt>
<pdfrwt beam="2">  1       -2 0.71524315E-01 0.11020426E+04</pdfrwt>
<totfact> 0.98184870E+01</totfact>
</mgrwt>
<rwgt>
<wgt id='morphing_basis_vector_1'> +1.9768517e-04 </wgt>
<wgt id='morphing_basis_vector_2'> +1.7106456e-04 </wgt>
<wgt id='morphing_basis_vector_3'> +1.9580660e-04 </wgt>
<wgt id='morphing_basis_vector_4'> +7.9345651e-05 </wgt>
<wgt id='morphing_basis_vector_5'> +1.7387230e-04 </wgt>
</rwgt>
</event>
<event>
 4      1 +7.8865000e-07 1.22443400e+03 7.81860800e-03 8.49576100e-02
        2 -1    0    0  501    0 +0.0000000000e+00 +0.0000000000e+00 +6.9627919647e+02 6.9627919647e+02 0.0000000000e+00 0.0000e+00 -1.0000e+00
       -2 -1    0    0    0  501 -0.0000000000e+00 -0.0000000000e+00 -5.3830334457e+02 5.3830334457e+02 0.0000000000e+00 0.0000e+00 1.0000e+00
      -13  1    1    2    0    0 -2.0364897806e+02 +2.5598293203e+02 -4.4280438510e+02 5.5052328853e+02 0.0000000000e+00 0.0000e+00 1.0000e+00
       13  1    1    2    0    0 +2.0364897806e+02 -2.5598293203e+02 +6.0078023700e+02 6.8405925250e+02 0.0000000000e+00 0.0000e+00 -1.0000e+00
<mgrwt>
<rscale>  0 0.12244336E+04</rscale>
<asrwt>0</asrwt>
<pdfrwt beam="1">  1        2 0.10711988E+00 0.12244336E+04</pdfrwt>
<pdfrwt beam="2">  1       -2 0.82815899E-01 0.12244336E+04</pdfrwt>
<totfact> 0.64966991E+01</totfact>
</mgrwt>
<rwgt>
<wgt id='morphing_basis_vector_1'> +2.6546407e-04 </wgt>
<wgt id='morphing_basis_vector_2'> +1.7047208e-04 </wgt>
<wgt id='morphing_basis_vector_3'> +2.6699208e-04 </wgt>
<wgt id='morphing_basis_vector_4'> +1.7316230e-04 </wgt>
<wgt id='morphing_basis_vector_5'> +2.7518759e-04 </wgt>
</rwgt>
</event>
<event>
 4      1 +7.8865000e-07 1.07324600e+03 7.81860800e-03 8.61763600e-02
        2 -1    0    0  501    0 +0.0000000000e+00 +0.0000000000e+00 +2.0468587161e+02 2.0468587161e+02 0.0000000000e+00 0.0000e+00 -1.0000e+00
       -2 -1    0    0    0  501 -0.0000000000e+00 -0.0000000000e+00 -1.4068581885e+03 1.4068581885e+03 0.0000000000e+00 0.0000e+00 1.0000e+00
      -13  1    1    2    0    0 -3.7533262430e+02 -4.5798003433e+01 -2.9324469963e+01 3.7925184313e+02 0.0000000000e+00 0.0000e+00 -1.0000e+00
       13  1    1    2    0    0 +3.7533262430e+02 +4.5798003433e+01 -1.1728478469e+03 1.2322922170e+03 0.0000000000e+00 0.0000e+00 1.0000e+00
<mgrwt>
<rscale>  0 0.10732455E+04</rscale>
<asrwt>0</asrwt>
<pdfrwt beam="1">  1        2 0.31490133E-01 0.10732455E+04</pdfrwt>
<pdfrwt beam="2">  1       -2 0.21643973E+00 0.10732455E+04</pdfrwt>
<totfact> 0.18563632E+01</totfact>
</mgrwt>
<rwgt>
<wgt id='morphing_basis_vector_1'> +2.0848805e-04 </wgt>
<wgt id='morphing_basis_vector_2'> +2.4349271e-04 </wgt>
<wgt id='morphing_basis_vector_3'> +2.0576199e-04 </wgt>
<wgt id='morphing_basis_vector_4'> +2.3311840e-05 </wgt>
<wgt id='morphing_basis_vector_5'> +1.5224403e-04 </wgt>
</rwgt>
</event>
<event>
 4      1 +7.8865000e-07 1.07474300e+03 7.81860800e-03 8.61632900e-02
        2 -1    0    0  501    0 +0.0000000000e+00 +0.0000000000e+00 +1.3592714301e+03 1.3592714301e+03 0.0000000000e+00 0.0000e+00 -1.0000e+00
       -2 -1    0    0    0  501 -0.0000000000e+00 -0.0000000000e+00 -2.1244336508e+02 2.1244336508e+02 0.0000000000e+00 0.0000e+00 1.0000e+00
      -13  1    1    2    0    0 -2.5881391749e+02 -2.5441630119e+02 -6.1430148108e+00 3.6297387624e+02 0.0000000000e+00 0.0000e+00 1.0000e+00
       13  1    1    2    0    0 +2.5881391749e+02 +2.5441630119e+02 +1.1529710799e+03 1.2087409190e+03 0.0000000000e+00 0.0000e+00 -1.0000e+00
<mgrwt>
<rscale>  0 0.10747431E+04</rscale>
<asrwt>0</asrwt>
<pdfrwt beam="1">  1        2 0.20911868E+00 0.10747431E+04</pdfrwt>
<pdfrwt beam="2">  1       -2 0.32683595E-01 0.10747431E+04</pdfrwt>
<totfact> 0.16050949E+02</totfact>
</mgrwt>
<rwgt>
<wgt id='morphing_basis_vector_1'> +1.6261040e-04 </wgt>
<wgt id='morphing_basis_vector_2'> +1.0303385e-04 </wgt>
<wgt id='morphing_basis_vector_3'> +1.5922922e-04 </wgt>
<wgt id='morphing_basis_vector_4'> +9.9444032e-05 </wgt>
<wgt id='morphing_basis_vector_5'> +1.5796139e-04 </wgt>
</rwgt>
</event>
<event>
 4      1 +7.8865000e-07 1.13954400e+03 7.81860800e-03 8.56176100e-02
        2 -1    0    0  501    0 +0.0000000000e+00 +0.0000000000e+00 +6.1772165138e+02 6.1772165138e+02 0.0000000000e+00 0.0000e+00 1.0000e+00
       -2 -1    0    0    0  501 -0.0000000000e+00 -0.0000000000e+00 -5.2554396987e+02 5.2554396987e+02 0.0000000000e+00 0.0000e+00 -1.0000e+00
      -13  1    1    2    0    0 +7.3192688632e+01 -1.6779256518e+02 -4.9523664663e+02 5.2798754793e+02 0.0000000000e+00 0.0000e+00 -1.0000e+00
       13  1    1    2    0    0 -7.3192688632e+01 +1.6779256518e+02 +5.8741432814e+02 6.1527807332e+02 0.0000000000e+00 0.0000e+00 1.0000e+00
<mgrwt>
<rscale>  0 0.11395436E+04</rscale>
<asrwt>0</asrwt>
<pdfrwt beam="1">  1        2 0.95034101E-01 0.11395436E+04</pdfrwt>
<pdfrwt beam="2">  1       -2 0.80852918E-01 0.11395436E+04</pdfrwt>
<totfact> 0.79760801E+01</totfact>
</mgrwt>
<rwgt>
<wgt id='morphing_basis_vector_1'> +2.0232593e-04 </wgt>
<wgt id='morphing_basis_vector_2'> +1.2873286e-04 </wgt>
<wgt id='morphing_basis_vector_3'> +2.0065502e-04 </wgt>
<wgt id='morphing_basis_vector_4'> +1.2789697e-04 </wgt>
<wgt id='morphing_basis_vector_5'> +2.0291750e-04 </wgt>
</rwgt>
</event>
<event>
 4      1 +7.8865000e-07 1.08303200e+03 7.81860800e-03 8.60913000e-02
        2 -1    0    0  501    0 +0.0000000000e+00 +0.0000000000e+00 +3.9381374339e+02 3.9381374339e+02 0.0000000000e+00 0.0000e+00 1.0000e+00
       -2 -1    0    0    0  501 -0.0000000000e+00 -0.0000000000e+00 -7.4461534559e+02 7.4461534559e+02 0.0000000000e+00 0.0000e+00 -1.0000e+00
      -13  1    1    2    0    0 +5.7095821675e+01 -5.0293103949e+02 -3.7770327126e+02 6.3155310501e+02 0.0000000000e+00 0.0000e+00 -1.0000e+00
       13  1    1    2    0    0 -5.7095821675e+01 +5.0293103949e+02 +2.6901669060e+01 5.0687598397e+02 0.0000000000e+00 0.0000e+00 1.0000e+00
<mgrwt>
<rscale>  0 0.10830323E+04</rscale>
<asrwt>0</asrwt>
<pdfrwt beam="1">  1        2 0.60586730E-01 0.10830323E+04</pdfrwt>
<pdfrwt beam="2">  1       -2 0.11455621E+00 0.10830323E+04</pdfrwt>
<totfact> 0.58317445E+01</totfact>
</mgrwt>
<rwgt>
<wgt id='morphing_basis_vector_1'> +1.6866218e-04 </wgt>
<wgt id='morphing_basis_vector_2'> +1.1011552e-04 </wgt>
<wgt id='morphing_basis_vector_3'> +1.6550297e-04 </wgt>
<wgt id='morphing_basis_vector_4'> +1.0062046e-04 </wgt>
<wgt id='morphing_basis_vector_5'> +1.6312018e-04 </wgt>
</rwgt>
</event>
<event>
 4      1 +7.8865000e-07 1.11097300e+03 7.81860800e-03 8.58534700e-02
        2 -1    0    0  501    0 +0.0000000000e+00 +0.0000000000e+00 +4.6735222642e+02 4.6735222642e+02 0.0000000000e+00 0.0000e+00 -1.0000e+00
       -2 -1    0    0    0  501 -0.0000000000e+00 -0.0000000000e+00 -6.6024166870e+02 6.6024166870e+02 0.0000000000e+00 0.0000e+00 1.0000e+00
      -13  1    1    2    0    0 +3.2884150216e+02 +5.0412874423e+01 -5.4794494888e+02 6.4103187007e+02 0.0000000000e+00 0.0000e+00 1.0000e+00
       13  1    1    2    0    0 -3.2884150216e+02 -5.0412874423e+01 +3.5505550660e+02 4.8656202505e+02 0.0000000000e+00 0.0000e+00 -1.0000e+00
<mgrwt>
<rscale>  0 0.11109733E+04</rscale>
<asrwt>0</asrwt>
<pdfrwt beam="1">  1        2 0.71900343E-01 0.11109733E+04</pdfrwt>
<pdfrwt beam="2">  1       -2 0.10157564E+00 0.11109733E+04</pdfrwt>
<totfact> 0.64692478E+01</totfact>
</mgrwt>
<rwgt>
<wgt id='morphing_basis_vector_1'> +1.8400916e-04 </wgt>
<wgt id='morphing_basis_vector_2'> +1.1690950e-04 </wgt>
<wgt id='morphing_basis_vector_3'> +1.8151677e-04 </wgt>
<wgt id='morphing_basis_vector_4'> +1.1467579e-04 </wgt>
<wgt id='morphing_basis_vector_5'> +1.8207503e-04 </wgt>
</rwgt>
</event>
<event>
 4      1 +7.8865000e-07 1.19292100e+03 7.81860800e-03 8.51958400e-02
        2 -1    0    0  501    0 +0.0000000000e+00 +0.0000000000e+00 +7.7825786499e+02 7.7825786499e+02 0.0000000000e+00 0.0000e+00 -1.0000e+00
       -2 -1    0    0    0  501 -0.0000000000e+00 -0.0000000000e+00 -4.5713013485e+02 4.5713013485e+02 0.0000000000e+00 0.0000e+00 1.0000e+00
      -13  1    1    2    0    0 -2.0163745384e+02 -4.6235259094e+02 -1.6910420066e+02 5.3199982314e+02 0.0000000000e+00 0.0000e+00 1.0000e+00
       13  1    1    2    0    0 +2.0163745384e+02 +4.6235259094e+02 +4.9023193080e+02 7.0338817670e+02 0.0000000000e+00 0.0000e+00 -1.0000e+00
<mgrwt>
<rscale>  0 0.11929210E+04</rscale>
<asrwt>0</asrwt>
<pdfrwt beam="1">  1        2 0.11973198E+00 0.11929210E+04</pdfrwt>
<pdfrwt beam="2">  1       -2 0.70327713E-01 0.11929210E+04</pdfrwt>
<totfact> 0.81451023E+01</totfact>
</mgrwt>
<rwgt>
<wgt id='morphing_basis_vector_1'> +2.4132216e-04 </wgt>
<wgt id='morphing_basis_vector_2'> +1.5643997e-04 </wgt>
<wgt id='morphing_basis_vector_3'> +2.4163049e-04 </wgt>
<wgt id='morphing_basis_vector_4'> +1.5374666e-04 </wgt>
<wgt id='morphing_basis_vector_5'> +2.4636388e-04 </wgt>
</rwgt>
</event>
<event>
 4      1 +7.8865000e-07 1.25760500e+03 7.81860800e-03 8.47148400e-02
        2 -1    0    0  501    0 +0.0000000000e+00 +0.0000000000e+00 +4.5357041324e+02 4.5357041324e+02 0.0000000000e+00 0.0000e+00 -1.0000e+00
       -2 -1    0    0    0  501 -0.0000000000e+00 -0.0000000000e+00 -8.7173357695e+02 8.7173357695e+02 0.0000000000e+00 0.0000e+00 1.0000e+00
      -13  1    1    2    0    0 -1.1420888450e+02 +5.1502663507e+02 -5.6969604170e+02 7.7643395344e+02 0.0000000000e+00 0.0000e+00 1.0000e+00
       13  1    1    2    0    0 +1.1420888450e+02 -5.1502663507e+02 +1.5153287799e+02 5.4887003675e+02 0.0000000000e+00 0.0000e+00 -1.0000e+00
<mgrwt>
<rscale>  0 0.12576050E+04</rscale>
<asrwt>0</asrwt>
<pdfrwt beam="1">  1        2 0.69780065E-01 0.12576050E+04</pdfrwt>
<pdfrwt beam="2">  1       -2 0.13411286E+00 0.12576050E+04</pdfrwt>
<totfact> 0.32414461E+01</totfact>
</mgrwt>
<rwgt>
<wgt id='morphing_basis_vector_1'> +2.9475291e-04 </wgt>
<wgt id='morphing_basis_vector_2'> +1.9201980e-04 </wgt>
<wgt id='morphing_basis_vector_3'> +2.9802286e-04 </wgt>
<wgt id='morphing_basis_vector_4'> +1.9212507e-04 </wgt>
<wgt id='morphing_basis_vector_5'> +3.0790581e-04 </wgt>
</rwgt>
</event>
<event>
 4      1 +7.8865000e-07 1.18413100e+03 7.81860800e-03 8.52636800e-02
        2 -1    0    0  501    0 +0.0000000000e+00 +0.0000000000e+00 +2.2228124277e+03 2.2228124277e+03 0.0000000000e+00 0.0000e+00 1.0000e+00
       -2 -1    0    0    0  501 -0.0000000000e+00 -0.0000000000e+00 -1.5770182880e+02 1.5770182880e+02 0.0000000000e+00 0.0000e+00 -1.0000e+00
      -13  1    1    2    0    0 +4.6080743676e+02 -1.8889427887e+02 +3.8887672617e+02 6.3186205023e+02 0.0000000000e+00 0.0000e+00 -1.0000e+00
       13  1    1    2    0    0 -4.6080743676e+02 +1.8889427887e+02 +1.6762338727e+03 1.7486522062e+03 0.0000000000e+00 0.0000e+00 1.0000e+00
<mgrwt>
<rscale>  0 0.11841310E+04</rscale>
<asrwt>0</asrwt>
<pdfrwt beam="1">  1        2 0.34197112E+00 0.11841310E+04</pdfrwt>
<pdfrwt beam="2">  1       -2 0.24261821E-01 0.11841310E+04</pdfrwt>
<totfact> 0.88455611E+01</totfact>
</mgrwt>
<rwgt>
<wgt id='morphing_basis_vector_1'> +2.3463710e-04 </wgt>
<wgt id='morphing_basis_vector_2'> +1.5190181e-04 </wgt>
<wgt id='morphing_basis_vector_3'> +2.3459375e-04 </wgt>
<wgt id='morphing_basis_vector_4'> +1.4907584e-04 </wgt>
<wgt id='morphing_basis_vector_5'> +2.3876762e-04 </wgt>
</rwgt>
</event>
<event>
 4      1 +7.8865000e-07 1.25163900e+03 7.81860800e-03 8.47579100e-02
        2 -1    0    0  501    0 +0.0000000000e+00 +0.0000000000e+00 +6.2806456846e+02 6.2806456846e+02 0.0000000000e+00 0.0000e+00 -1.0000e+00
       -2 -1    0    0    0  501 -0.0000000000e+00 -0.0000000000e+00 -6.2358268858e+02 6.2358268858e+02 0.0000000000e+00 0.0000e+00 1.0000e+00
      -13  1    1    2    0    0 +2.0904725774e+02 -3.0840902875e+02 -5.0058760848e+02 6.2402310754e+02 0.0000000000e+00 0.0000e+00 1.0000e+00
       13  1    1    2    0    0 -2.0904725774e+02 +3.0840902875e+02 +5.0506948835e+02 6.2762414951e+02 0.0000000000e+00 0.0000e+00 -1.0000e+00
<mgrwt>
<rscale>  0 0.12516392E+04</rscale>
<asrwt>0</asrwt>
<pdfrwt beam="1">  1        2 0.96625318E-01 0.12516392E+04</pdfrwt>
<pdfrwt beam="2">  1       -2 0.95935798E-01 0.12516392E+04</pdfrwt>
<totfact> 0.52125478E+01</totfact>
</mgrwt>
<rwgt>
<wgt id='morphing_basis_vector_1'> +2.8861295e-04 </wgt>
<wgt id='morphing_basis_vector_2'> +1.8590689e-04 </wgt>
<wgt id='morphing_basis_vector_3'> +2.9143074e-04 </wgt>
<wgt id='morphing_basis_vector_4'> +1.8983137e-04 </wgt>
<wgt id='morphing_basis_vector_5'> +3.0190563e-04 </wgt>
</rwgt>
</event>
<event>
 4      1 +7.8865000e-07 1.14550300e+03 7.81860800e-03 8.55693200e-02
        2 -1    0    0  501    0 +0.0000000000e+00 +0.0000000000e+00 +2.2455417900e+03 2.2455417900e+03 0.0000000000e+00 0.0000e+00 1.0000e+00
       -2 -1    0    0    0  501 -0.0000000000e+00 -0.0000000000e+00 -1.4608702496e+02 1.4608702496e+02 0.0000000000e+00 0.0000e+00 -1.0000e+00
      -13  1    1    2    0    0 +4.4768211531e+02 -3.1413433744e+02 +1.4049356979e+03 1.5076285927e+03 0.0000000000e+00 0.0000e+00 -1.0000e+00
       13  1    1    2    0    0 -4.4768211531e+02 +3.1413433744e+02 +6.9451906717e+02 8.8400022228e+02 0.0000000000e+00 0.0000e+00 1.0000e+00
<mgrwt>
<rscale>  0 0.11455034E+04</rscale>
<asrwt>0</asrwt>
<pdfrwt beam="1">  1        2 0.34546794E+00 0.11455034E+04</pdfrwt>
<pdfrwt beam="2">  1       -2 0.22474928E-01 0.11455034E+04</pdfrwt>
<totfact> 0.98130948E+01</totfact>
</mgrwt>
<rwgt>
<wgt id='morphing_basis_vector_1'> +2.2680111e-04 </wgt>
<wgt id='morphing_basis_vector_2'> +1.9296006e-04 </wgt>
<wgt id='morphing_basis_vector_3'> +2.2706560e-04 </wgt>
<wgt id='morphing_basis_vector_4'> +9.6445317e-05 </wgt>
<wgt id='morphing_basis_vector_5'> +2.0520872e-04 </wgt>
</rwgt>
</event>
<event>
 4      1 +7.8865000e-07 1.27073600e+03 7.81860800e-03 8.46209000e-02
        2 -1    0    0  501    0 +0.0000000000e+00 +0.0000000000e+00 +8.1310645396e+02 8.1310645396e+02 0.0000000000e+00 0.0000e+00 -1.0000e+00
       -2 -1    0    0    0  501 -0.0000000000e+00 -0.0000000000e+00 -4.9648149756e+02 4.9648149756e+02 0.0000000000e+00 0.0000e+00 1.0000e+00
      -13  1    1    2    0    0 +4.5217551005e+02 -1.3926619142e+02 -2.7872229983e+02 5.4913011608e+02 0.0000000000e+00 0.0000e+00 1.0000e+00
       13  1    1    2    0    0 -4.5217551005e+02 +1.3926619142e+02 +5.9534725623e+02 7.6045783543e+02 0.0000000000e+00 0.0000e+00 -1.0000e+00
<mgrwt>
<rscale>  0 0.12707357E+04</rscale>
<asrwt>0</asrwt>
<pdfrwt beam="1">  1        2 0.12509330E+00 0.12707357E+04</pdfrwt>
<pdfrwt beam="2">  1       -2 0.76381769E-01 0.12707357E+04</pdfrwt>
<totfact> 0.63932273E+01</totfact>
</mgrwt>
<rwgt>
<wgt id='morphing_basis_vector_1'> +3.0605954e-04 </wgt>
<wgt id='morphing_basis_vector_2'> +1.9825561e-04 </wgt>
<wgt id='morphing_basis_vector_3'> +3.0992066e-04 </wgt>
<wgt id='morphing_basis_vector_4'> +2.0169166e-04 </wgt>
<wgt id='morphing_basis_vector_5'> +3.2173243e-04 </wgt>
</rwgt>
</event>
<event>
 4      1 +7.8865000e-07 1.13163500e+03 7.81860800e-03 8.56821800e-02
        2 -1    0    0  501    0 +0.0000000000e+00 +0.0000000000e+00 +4.5141717068e+02 4.5141717068e+02 0.0000000000e+00 0.0000e+00 -1.0000e+00
       -2 -1    0    0    0  501 -0.0000000000e+00 -0.0000000000e+00 -7.0920929690e+02 7.0920929690e+02 0.0000000000e+00 0.0000e+00 1.0000e+00
      -13  1    1    2    0    0 +2.5498992609e+02 +3.1092935607e+02 -5.3715484795e+02 6.7099348547e+02 0.0000000000e+00 0.0000e+00 1.0000e+00
       13  1    1    2    0    0 -2.5498992609e+02 -3.1092935607e+02 +2.7936272173e+02 4.8963298211e+02 0.0000000000e+00 0.0000e+00 -1.0000e+00
<mgrwt>
<rscale>  0 0.11316347E+04</rscale>
<asrwt>0</asrwt>
<pdfrwt beam="1">  1        2 0.69448796E-01 0.11316347E+04</pdfrwt>
<pdfrwt beam="2">  1       -2 0.10910912E+00 0.11316347E+04</pdfrwt>
<totfact> 0.56316132E+01</totfact>
</mgrwt>
<rwgt>
<wgt id='morphing_basis_vector_1'> +1.9732862e-04 </wgt>
<wgt id='morphing_basis_vector_2'> +1.2599600e-04 </wgt>
<wgt id='morphing_basis_vector_3'> +1.9543425e-04 </wgt>
<wgt id='morphing_basis_vector_4'> +1.2378526e-04 </wgt>
<wgt id='morphing_basis_vector_5'> +1.9695853e-04 </wgt>
</rwgt>
</event>
<event>
 4      1 +7.8865000e-07 1.12090200e+03 7.81860800e-03 8.57706800e-02
        2 -1    0    0  501    0 +0.0000000000e+00 +0.0000000000e+00 +1.2198655325e+03 1.2198655325e+03 0.0000000000e+00 0.0000e+00 1.0000e+00
       -2 -1    0    0    0  501 -0.0000000000e+00 -0.0000000000e+00 -2.5749180374e+02 2.5749180374e+02 0.0000000000e+00 0.0000e+00 -1.0000e+00
      -13  1    1    2    0    0 -1.2139302333e+02 +3.2547000796e+02 -9.8494315031e+01 3.6106526043e+02 0.0000000000e+00 0.0000e+00 -1.0000e+00
       13  1    1    2    0    0 +1.2139302333e+02 -3.2547000796e+02 +1.0608680438e+03 1.1162920758e+03 0.0000000000e+00 0.0000e+00 1.0000e+00
<mgrwt>
<rscale>  0 0.11209021E+04</rscale>
<asrwt>0</asrwt>
<pdfrwt beam="1">  1        2 0.18767162E+00 0.11209021E+04</pdfrwt>
<pdfrwt beam="2">  1       -2 0.39614124E-01 0.11209021E+04</pdfrwt>
<totfact> 0.13529216E+02</totfact>
</mgrwt>
<rwgt>
<wgt id='morphing_basis_vector_1'> +1.9027221e-04 </wgt>
<wgt id='morphing_basis_vector_2'> +1.2106542e-04 </wgt>
<wgt id='morphing_basis_vector_3'> +1.8805583e-04 </wgt>
<wgt id='morphing_basis_vector_4'> +1.1907023e-04 </wgt>
<wgt id='morphing_basis_vector_5'> +1.8912545e-04 </wgt>
</rwgt>
</event>
<event>
 4      1 +7.8865000e-07 1.20293600e+03 7.81860800e-03 8.51193000e-02
        2 -1    0    0  501    0 +0.0000000000e+00 +0.0000000000e+00 +1.5045885419e+03 1.5045885419e+03 0.0000000000e+00 0.0000e+00 -1.0000e+00
       -2 -1    0    0    0  501 -0.0000000000e+00 -0.0000000000e+00 -2.4044019641e+02 2.4044019641e+02 0.0000000000e+00 0.0000e+00 1.0000e+00
      -13  1    1    2    0    0 +8.3453202268e+01 +5.8860621777e+02 +4.9958166773e+02 7.7653303812e+02 0.0000000000e+00 0.0000e+00 1.0000e+00
       13  1    1    2    0    0 -8.3453202268e+01 -5.8860621777e+02 +7.6456667781e+02 9.6849570024e+02 0.0000000000e+00 0.0000e+00 -1.0000e+00
<mgrwt>
<rscale>  0 0.12029357E+04</rscale>
<asrwt>0</asrwt>
<pdfrwt beam="1">  1        2 0.23147516E+00 0.12029357E+04</pdfrwt>
<pdfrwt beam="2">  1       -2 0.36990800E-01 0.12029357E+04</pdfrwt>
<totfact> 0.10525702E+02</totfact>
</mgrwt>
<rwgt>
<wgt id='morphing_basis_vector_1'> +2.5325011e-04 </wgt>
<wgt id='morphing_basis_vector_2'> +1.7415490e-04 </wgt>
<wgt id='morphing_basis_vector_3'> +2.5452928e-04 </wgt>
<wgt id='morphing_basis_vector_4'> +1.5209608e-04 </wgt>
<wgt id='morphing_basis_vector_5'> +2.5475134e-04 </wgt>
</rwgt>
</event>
<event>
 4      1 +7.8865000e-07 1.19229700e+03 7.81860800e-03 8.52006400e-02
        2 -1    0    0  501    0 +0.0000000000e+00 +0.0000000000e+00 +1.2208628296e+03 1.2208628296e+03 0.0000000000e+00 0.0000e+00 -1.0000e+00
       -2 -1    0    0    0  501 -0.0000000000e+00 -0.0000000000e+00 -2.9109969754e+02 2.9109969754e+02 0.0000000000e+00 0.0000e+00 1.0000e+00
      -13  1    1    2    0    0 +4.5996786816e+02 -1.9089429167e+02 +4.9332875964e+01 5.0044460531e+02 0.0000000000e+00 0.0000e+00 1.0000e+00
       13  1    1    2    0    0 -4.5996786816e+02 +1.9089429167e+02 +8.8043025609e+02 1.0115179218e+03 0.0000000000e+00 0.0000e+00 -1.0000e+00
<mgrwt>
<rscale>  0 0.11922966E+04</rscale>
<asrwt>0</asrwt>
<pdfrwt beam="1">  1        2 0.18782505E+00 0.11922966E+04</pdfrwt>
<pdfrwt beam="2">  1       -2 0.44784570E-01 0.11922966E+04</pdfrwt>
<totfact> 0.10663630E+02</totfact>
</mgrwt>
<rwgt>
<wgt id='morphing_basis_vector_1'> +2.4076970e-04 </wgt>
<wgt id='morphing_basis_vector_2'> +1.5589539e-04 </wgt>
<wgt id='morphing_basis_vector_3'> +2.4104347e-04 </wgt>
<wgt id='morphing_basis_vector_4'> +1.5353596e-04 </wgt>
<wgt id='morphing_basis_vector_5'> +2.4582692e-04 </wgt>
</rwgt>
</event>
<event>
 4      1 +7.8865000e-07 1.17920900e+03 7.81860800e-03 8.53019400e-02
        2 -1    0    0  501    0 +0.0000000000e+00 +0.0000000000e+00 +1.0944928219e+03 1.0944928219e+03 0.0000000000e+00 0.0000e+00 1.0000e+00
       -2 -1    0    0    0  501 -0.0000000000e+00 -0.0000000000e+00 -3.1762078547e+02 3.1762078547e+02 0.0000000000e+00 0.0000e+00 -1.0000e+00
      -13  1    1    2    0    0 -4.2386199537e+02 -1.3782566649e+02 -7.3775655233e+01 4.5177179280e+02 0.0000000000e+00 0.0000e+00 -1.0000e+00
       13  1    1    2    0    0 +4.2386199537e+02 +1.3782566649e+02 +8.5064769167e+02 9.6034181456e+02 0.0000000000e+00 0.0000e+00 1.0000e+00
<mgrwt>
<rscale>  0 0.11792093E+04</rscale>
<asrwt>0</asrwt>
<pdfrwt beam="1">  1        2 0.16838351E+00 0.11792093E+04</pdfrwt>
<pdfrwt beam="2">  1       -2 0.48864737E-01 0.11792093E+04</pdfrwt>
<totfact> 0.10710138E+02</totfact>
</mgrwt>
<rwgt>
<wgt id='morphing_basis_vector_1'> +2.3056435e-04 </wgt>
<wgt id='morphing_basis_vector_2'> +1.4822638e-04 </wgt>
<wgt id='morphing_basis_vector_3'> +2.3028501e-04 </wgt>
<wgt id='morphing_basis_vector_4'> +1.4717356e-04 </wgt>
<wgt id='morphing_basis_vector_5'> +2.3463513e-04 </wgt>
</rwgt>
</event>
<event>
 4      1 +7.8865000e-07 1.13615900e+03 7.81860800e-03 8.56451700e-02
        2 -1    0    0  501    0 +0.0000000000e+00 +0.0000000000e+00 +1.1502317996e+03 1.1502317996e+03 0.0000000000e+00 0.0000e+00 -1.0000e+00
       -2 -1    0    0    0  501 -0.0000000000e+00 -0.0000000000e+00 -2.8056455055e+02 2.8056455055e+02 0.0000000000e+00 0.0000e+00 1.0000e+00
      -13  1    1    2    0    0 -4.8267550651e+02 +2.9945259262e+02 +4.4512380818e+02 7.2165275889e+02 0.0000000000e+00 0.0000e+00 1.0000e+00
       13  1    1    2    0    0 +4.8267550651e+02 -2.9945259262e+02 +4.2454344087e+02 7.0914359124e+02 0.0000000000e+00 0.0000e+00 -1.0000e+00
<mgrwt>
<rscale>  0 0.11361589E+04</rscale>
<asrwt>0</asrwt>
<pdfrwt beam="1">  1        2 0.17695874E+00 0.11361589E+04</pdfrwt>
<pdfrwt beam="2">  1       -2 0.43163778E-01 0.11361589E+04</pdfrwt>
<totfact> 0.12634833E+02</totfact>
</mgrwt>
<rwgt>
<wgt id='morphing_basis_vector_1'> +2.0765269e-04 </wgt>
<wgt id='morphing_basis_vector_2'> +1.5006727e-04 </wgt>
<wgt id='morphing_basis_vector_3'> +2.0646079e-04 </wgt>
<wgt id='morphing_basis_vector_4'> +1.1364231e-04 </wgt>
<wgt id='morphing_basis_vector_5'> +1.9953107e-04 </wgt>
</rwgt>
</event>
<event>
 4      1 +7.8865000e-07 1.11733500e+03 7.81860800e-03 8.58003200e-02
        2 -1    0    0  501    0 +0.0000000000e+00 +0.0000000000e+00 +1.9176492165e+03 1.9176492165e+03 0.0000000000e+00 0.0000e+00 1.0000e+00
       -2 -1    0    0    0  501 -0.0000000000e+00 -0.0000000000e+00 -1.6275634046e+02 1.6275634046e+02 0.0000000000e+00 0.0000e+00 -1.0000e+00
      -13  1    1    2    0    0 -5.3883642470e+02 +1.4640484991e+02 +8.4359729741e+02 1.0116498766e+03 0.0000000000e+00 0.0000e+00 -1.0000e+00
       13  1    1    2    0    0 +5.3883642470e+02 -1.4640484991e+02 +9.1129557867e+02 1.0687556804e+03 0.0000000000e+00 0.0000e+00 1.0000e+00
<mgrwt>
<rscale>  0 0.11173353E+04</rscale>
<asrwt>0</asrwt>
<pdfrwt beam="1">  1        2 0.29502294E+00 0.11173353E+04</pdfrwt>
<pdfrwt beam="2">  1       -2 0.25039438E-01 0.11173353E+04</pdfrwt>
<totfact> 0.12503871E+02</totfact>
</mgrwt>
<rwgt>
<wgt id='morphing_basis_vector_1'> +1.9390542e-04 </wgt>
<wgt id='morphing_basis_vector_2'> +1.3734012e-04 </wgt>
<wgt id='morphing_basis_vector_3'> +1.9193803e-04 </wgt>
<wgt id='morphing_basis_vector_4'> +1.0771324e-04 </wgt>
<wgt id='morphing_basis_vector_5'> +1.8593530e-04 </wgt>
</rwgt>
</event>
<event>
 4      1 +7.8865000e-07 1.07227500e+03 7.81860800e-03 8.61848500e-02
        2 -1    0    0  501    0 +0.0000000000e+00 +0.0000000000e+00 +7.2386643937e+02 7.2386643937e+02 0.0000000000e+00 0.0000e+00 1.0000e+00
       -2 -1    0    0    0  501 -0.0000000000e+00 -0.0000000000e+00 -3.9709470979e+02 3.9709470979e+02 0.0000000000e+00 0.0000e+00 -1.0000e+00
      -13  1    1    2    0    0 +2.2694711637e+02 +4.1091875461e+02 -1.0738055049e+02 4.8154937353e+02 0.0000000000e+00 0.0000e+00 -1.0000e+00
       13  1    1    2    0    0 -2.2694711637e+02 -4.1091875461e+02 +4.3415228007e+02 6.3941177563e+02 0.0000000000e+00 0.0000e+00 1.0000e+00
<mgrwt>
<rscale>  0 0.10722752E+04</rscale>
<asrwt>0</asrwt>
<pdfrwt beam="1">  1        2 0.11136407E+00 0.10722752E+04</pdfrwt>
<pdfrwt beam="2">  1       -2 0.61091494E-01 0.10722752E+04</pdfrwt>
<totfact> 0.12092650E+02</totfact>
</mgrwt>
<rwgt>
<wgt id='morphing_basis_vector_1'> +1.6184322e-04 </wgt>
<wgt id='morphing_basis_vector_2'> +1.0400053e-04 </wgt>
<wgt id='morphing_basis_vector_3'> +1.5841599e-04 </wgt>
<wgt id='morphing_basis_vector_4'> +9.7466017e-05 </wgt>
<wgt id='morphing_basis_vector_5'> +1.5634602e-04 </wgt>
</rwgt>
</event>
<event>
 4      1 +7.8865000e-07 1.16826800e+03 7.81860800e-03 8.53876800e-02
        2 -1    0    0  501    0 +0.0000000000e+00 +0.0000000000e+00 +8.3700811532e+02 8.3700811532e+02 0.0000000000e+00 0.0000e+00 1.0000e+00
       -2 -1    0    0    0  501 -0.0000000000e+00 -0.0000000000e+00 -4.0765766534e+02 4.0765766534e+02 0.0000000000e+00 0.0000e+00 -1.0000e+00
      -13  1    1    2    0    0 -4.2692635470e+02 -8.4034114963e+01 -2.0053444074e+02 4.7910531905e+02 0.0000000000e+00 0.0000e+00 -1.0000e+00
       13  1    1    2    0    0 +4.2692635470e+02 +8.4034114963e+01 +6.2988489072e+02 7.6556046161e+02 0.0000000000e+00 0.0000e+00 1.0000e+00
<mgrwt>
<rscale>  0 0.11682684E+04</rscale>
<asrwt>0</asrwt>
<pdfrwt beam="1">  1        2 0.12877048E+00 0.11682684E+04</pdfrwt>
<pdfrwt beam="2">  1       -2 0.62716564E-01 0.11682684E+04</pdfrwt>
<totfact> 0.94561357E+01</totfact>
</mgrwt>
<rwgt>
<wgt id='morphing_basis_vector_1'> +2.2256139e-04 </wgt>
<wgt id='morphing_basis_vector_2'> +1.4284981e-04 </wgt>
<wgt id='morphing_basis_vector_3'> +2.2187793e-04 </wgt>
<wgt id='morphing_basis_vector_4'> +1.4154035e-04 </wgt>
<wgt id='morphing_basis_vector_5'> +2.2553902e-04 </wgt>
</rwgt>
</event>
<event>
 4      1 +7.8865000e-07 1.09942200e+03 7.81860800e-03 8.59509100e-02
        2 -1    0    0  501    0 +0.0000000000e+00 +0.0000000000e+00 +1.5488087179e+03 1.5488087179e+03 0.0000000000e+00 0.0000e+00 1.0000e+00
       -2 -1    0    0    0  501 -0.0000000000e+00 -0.0000000000e+00 -1.9510616538e+02 1.9510616538e+02 0.0000000000e+00 0.0000e+00 -1.0000e+00
      -13  1    1    2    0    0 -1.9923684089e+02 +4.8618615465e+02 +9.3315974492e+02 1.0709152185e+03 0.0000000000e+00 0.0000e+00 -1.0000e+00
       13  1    1    2    0    0 +1.9923684089e+02 -4.8618615465e+02 +4.2054280765e+02 6.7299966479e+02 0.0000000000e+00 0.0000e+00 1.0000e+00
<mgrwt>
<rscale>  0 0.10994219E+04</rscale>
<asrwt>0</asrwt>
<pdfrwt beam="1">  1        2 0.23827826E+00 0.10994219E+04</pdfrwt>
<pdfrwt beam="2">  1       -2 0.30016334E-01 0.10994219E+04</pdfrwt>
<totfact> 0.14605424E+02</totfact>
</mgrwt>
<rwgt>
<wgt id='morphing_basis_vector_1'> +1.9420005e-04 </wgt>
<wgt id='morphing_basis_vector_2'> +1.6430107e-04 </wgt>
<wgt id='morphing_basis_vector_3'> +1.9212505e-04 </wgt>
<wgt id='morphing_basis_vector_4'> +8.1385564e-05 </wgt>
<wgt id='morphing_basis_vector_5'> +1.7229569e-04 </wgt>
</rwgt>
</event>
<event>
 4      1 +7.8865000e-07 1.09755700e+03 7.81860800e-03 8.59667600e-02
        2 -1    0    0  501    0 +0.0000000000e+00 +0.0000000000e+00 +2.0840751704e+03 2.0840751704e+03 0.0000000000e+00 0.0000e+00 -1.0000e+00
       -2 -1    0    0    0  501 -0.0000000000e+00 -0.0000000000e+00 -1.4450420669e+02 1.4450420669e+02 0.0000000000e+00 0.0000e+00 1.0000e+00
      -13  1    1    2    0    0 -3.1753663088e+02 -4.0133361436e+02 +5.6746395855e+02 7.6414234683e+02 0.0000000000e+00 0.0000e+00 1.0000e+00
       13  1    1    2    0    0 +3.1753663088e+02 +4.0133361436e+02 +1.3721070052e+03 1.4644370303e+03 0.0000000000e+00 0.0000e+00 -1.0000e+00
<mgrwt>
<rscale>  0 0.10975566E+04</rscale>
<asrwt>0</asrwt>
<pdfrwt beam="1">  1        2 0.32062693E+00 0.10975566E+04</pdfrwt>
<pdfrwt beam="2">  1       -2 0.22231418E-01 0.10975566E+04</pdfrwt>
<totfact> 0.12386235E+02</totfact>
</mgrwt>
<rwgt>
<wgt id='morphing_basis_vector_1'> +1.7724168e-04 </wgt>
<wgt id='morphing_basis_vector_2'> +1.1581835e-04 </wgt>
<wgt id='morphing_basis_vector_3'> +1.7445602e-04 </wgt>
<wgt id='morphing_basis_vector_4'> +1.0656449e-04 </wgt>
<wgt id='morphing_basis_vector_5'> +1.7270488e-04 </wgt>
</rwgt>
</event>
<event>
 4      1 +7.8865000e-07 1.14755200e+03 7.81860800e-03 8.55528000e-02
        2 -1    0    0  501    0 +0.0000000000e+00 +0.0000000000e+00 +1.5642489042e+03 1.5642489042e+03 0.0000000000e+00 0.0000e+00 -1.0000e+00
       -2 -1    0    0    0  501 -0.0000000000e+00 -0.0000000000e+00 -2.1046446101e+02 2.1046446101e+02 0.0000000000e+00 0.0000e+00 1.0000e+00
      -13  1    1    2    0    0 +4.2419659804e+02 -2.9355997386e+02 +2.8841484009e+02 5.9101889312e+02 0.0000000000e+00 0.0000e+00 1.0000e+00
       13  1    1    2    0    0 -4.2419659804e+02 +2.9355997386e+02 +1.0653696031e+03 1.1836944721e+03 0.0000000000e+00 0.0000e+00 -1.0000e+00
<mgrwt>
<rscale>  0 0.11475518E+04</rscale>
<asrwt>0</asrwt>
<pdfrwt beam="1">  1        2 0.24065367E+00 0.11475518E+04</pdfrwt>
<pdfrwt beam="2">  1       -2 0.32379149E-01 0.11475518E+04</pdfrwt>
<totfact> 0.12466837E+02</totfact>
</mgrwt>
<rwgt>
<wgt id='morphing_basis_vector_1'> +2.0896896e-04 </wgt>
<wgt id='morphing_basis_vector_2'> +1.3601685e-04 </wgt>
<wgt id='morphing_basis_vector_3'> +2.0765900e-04 </wgt>
<wgt id='morphing_basis_vector_4'> +1.2967053e-04 </wgt>
<wgt id='morphing_basis_vector_5'> +2.0892082e-04 </wgt>
</rwgt>
</event>
<event>
 4      1 +7.8865000e-07 1.15924200e+03 7.81860800e-03 8.54591800e-02
        2 -1    0    0  501    0 +0.0000000000e+00 +0.0000000000e+00 +1.1843789854e+03 1.1843789854e+03 0.0000000000e+00 0.0000e+00 -1.0000e+00
       -2 -1    0    0    0  501 -0.0000000000e+00 -0.0000000000e+00 -2.8365954201e+02 2.8365954201e+02 0.0000000000e+00 0.0000e+00 1.0000e+00
      -13  1    1    2    0    0 -3.2716064643e+02 -3.7000294909e+02 +6.6197838296e+01 4.9831558745e+02 0.0000000000e+00 0.0000e+00 1.0000e+00
       13  1    1    2    0    0 +3.2716064643e+02 +3.7000294909e+02 +8.3452160509e+02 9.6972293995e+02 0.0000000000e+00 0.0000e+00 -1.0000e+00
<mgrwt>
<rscale>  0 0.11592418E+04</rscale>
<asrwt>0</asrwt>
<pdfrwt beam="1">  1        2 0.18221215E+00 0.11592418E+04</pdfrwt>
<pdfrwt beam="2">  1       -2 0.43639930E-01 0.11592418E+04</pdfrwt>
<totfact> 0.11794955E+02</totfact>
</mgrwt>
<rwgt>
<wgt id='morphing_basis_vector_1'> +2.1663963e-04 </wgt>
<wgt id='morphing_basis_vector_2'> +1.4008892e-04 </wgt>
<wgt id='morphing_basis_vector_3'> +2.1568825e-04 </wgt>
<wgt id='morphing_basis_vector_4'> +1.3613738e-04 </wgt>
<wgt id='morphing_basis_vector_5'> +2.1817363e-04 </wgt>
</rwgt>
</event>
<event>
 4      1 +7.8865000e-07 1.12262100e+03 7.81860800e-03 8.57564400e-02
        2 -1    0    0  501    0 +0.0000000000e+00 +0.0000000000e+00 +3.1527458077e+02 3.1527458077e+02 0.0000000000e+00 0.0000e+00 1.0000e+00
       -2 -1    0    0    0  501 -0.0000000000e+00 -0.0000000000e+00 -9.9934964449e+02 9.9934964449e+02 0.0000000000e+00 0.0000e+00 -1.0000e+00
      -13  1    1    2    0    0 +5.5429666672e+02 +2.6210192903e+01 -2.4310258182e+02 6.0583053261e+02 0.0000000000e+00 0.0000e+00 -1.0000e+00
       13  1    1    2    0    0 -5.5429666672e+02 -2.6210192903e+01 -4.4097248190e+02 7.0879369265e+02 0.0000000000e+00 0.0000e+00 1.0000e+00
<mgrwt>
<rscale>  0 0.11226211E+04</rscale>
<asrwt>0</asrwt>
<pdfrwt beam="1">  1        2 0.48503782E-01 0.11226211E+04</pdfrwt>
<pdfrwt beam="2">  1       -2 0.15374610E+00 0.11226211E+04</pdfrwt>
<totfact> 0.33659710E+01</totfact>
</mgrwt>
<rwgt>
<wgt id='morphing_basis_vector_1'> +2.0292624e-04 </wgt>
<wgt id='morphing_basis_vector_2'> +1.5659691e-04 </wgt>
<wgt id='morphing_basis_vector_3'> +2.0150204e-04 </wgt>
<wgt id='morphing_basis_vector_4'> +1.0067895e-04 </wgt>
<wgt id='morphing_basis_vector_5'> +1.8911647e-04 </wgt>
</rwgt>
</event>
<event>
 4      1 +7.8865000e-07 1.08093700e+03 7.81860800e-03 8.61094400e-02
        2 -1    0    0  501    0 +0.0000000000e+00 +0.0000000000e+00 +2.8362238593e+02 2.8362238593e+02 0.0000000000e+00 0.0000e+00 -1.0000e+00
       -2 -1    0    0    0  501 -0.0000000000e+00 -0.0000000000e+00 -1.0299114394e+03 1.0299114394e+03 0.0000000000e+00 0.0000e+00 1.0000e+00
      -13  1    1    2    0    0 -4.2488784960e+02 -3.2965647782e+02 -4.3861632028e+02 6.9396495194e+02 0.0000000000e+00 0.0000e+00 1.0000e+00
       13  1    1    2    0    0 +4.2488784960e+02 +3.2965647782e+02 -3.0767273316e+02 6.1956887336e+02 0.0000000000e+00 0.0000e+00 -1.0000e+00
<mgrwt>
<rscale>  0 0.10809365E+04</rscale>
<asrwt>0</asrwt>
<pdfrwt beam="1">  1        2 0.43634214E-01 0.10809365E+04</pdfrwt>
<pdfrwt beam="2">  1       -2 0.15844791E+00 0.10809365E+04</pdfrwt>
<totfact> 0.34835362E+01</totfact>
</mgrwt>
<rwgt>
<wgt id='morphing_basis_vector_1'> +1.7011510e-04 </wgt>
<wgt id='morphing_basis_vector_2'> +1.1734869e-04 </wgt>
<wgt id='morphing_basis_vector_3'> +1.6696514e-04 </wgt>
<wgt id='morphing_basis_vector_4'> +9.5457726e-05 </wgt>
<wgt id='morphing_basis_vector_5'> +1.6149526e-04 </wgt>
</rwgt>
</event>
<event>
 4      1 +7.8865000e-07 1.27320400e+03 7.81860800e-03 8.46033700e-02
        2 -1    0    0  501    0 +0.0000000000e+00 +0.0000000000e+00 +2.1850517699e+03 2.1850517699e+03 0.0000000000e+00 0.0000e+00 1.0000e+00
       -2 -1    0    0    0  501 -0.0000000000e+00 -0.0000000000e+00 -1.8547015660e+02 1.8547015660e+02 0.0000000000e+00 0.0000e+00 -1.0000e+00
      -13  1    1    2    0    0 -1.1760918534e+02 +6.2473909919e+02 +1.0624065338e+03 1.2380785539e+03 0.0000000000e+00 0.0000e+00 -1.0000e+00
       13  1    1    2    0    0 +1.1760918534e+02 -6.2473909919e+02 +9.3717507945e+02 1.1324433726e+03 0.0000000000e+00 0.0000e+00 1.0000e+00
<mgrwt>
<rscale>  0 0.12732037E+04</rscale>
<asrwt>0</asrwt>
<pdfrwt beam="1">  1        2 0.33616179E+00 0.12732037E+04</pdfrwt>
<pdfrwt beam="2">  1       -2 0.28533872E-01 0.12732037E+04</pdfrwt>
<totfact> 0.69607663E+01</totfact>
</mgrwt>
<rwgt>
<wgt id='morphing_basis_vector_1'> +3.2128216e-04 </wgt>
<wgt id='morphing_basis_vector_2'> +2.3858952e-04 </wgt>
<wgt id='morphing_basis_vector_3'> +3.2767813e-04 </wgt>
<wgt id='morphing_basis_vector_4'> +1.8052425e-04 </wgt>
<wgt id='morphing_basis_vector_5'> +3.2277520e-04 </wgt>
</rwgt>
</event>
<event>
 4      1 +7.8865000e-07 1.17615400e+03 7.81860800e-03 8.53257800e-02
        2 -1    0    0  501    0 +0.0000000000e+00 +0.0000000000e+00 +2.1148421453e+03 2.1148421453e+03 0.0000000000e+00 0.0000e+00 1.0000e+00
       -2 -1    0    0    0  501 -0.0000000000e+00 -0.0000000000e+00 -1.6352736472e+02 1.6352736472e+02 0.0000000000e+00 0.0000e+00 -1.0000e+00
      -13  1    1    2    0    0 -1.7444279746e+01 -3.8091524132e+02 +1.0840503223e+02 3.9642448837e+02 0.0000000000e+00 0.0000e+00 -1.0000e+00
       13  1    1    2    0    0 +1.7444279746e+01 +3.8091524132e+02 +1.8429097484e+03 1.8819450217e+03 0.0000000000e+00 0.0000e+00 1.0000e+00
<mgrwt>
<rscale>  0 0.11761540E+04</rscale>
<asrwt>0</asrwt>
<pdfrwt beam="1">  1        2 0.32536031E+00 0.11761540E+04</pdfrwt>
<pdfrwt beam="2">  1       -2 0.25158058E-01 0.11761540E+04</pdfrwt>
<totfact> 0.95746704E+01</totfact>
</mgrwt>
<rwgt>
<wgt id='morphing_basis_vector_1'> +2.2808900e-04 </wgt>
<wgt id='morphing_basis_vector_2'> +1.4605237e-04 </wgt>
<wgt id='morphing_basis_vector_3'> +2.2767031e-04 </wgt>
<wgt id='morphing_basis_vector_4'> +1.4595569e-04 </wgt>
<wgt id='morphing_basis_vector_5'> +2.3209324e-04 </wgt>
</rwgt>
</event>
<event>
 4      1 +7.8865000e-07 1.13200000e+03 7.81860800e-03 8.56791800e-02
        2 -1    0    0  501    0 +0.0000000000e+00 +0.0000000000e+00 +6.3104697744e+02 6.3104697744e+02 0.0000000000e+00 0.0000e+00 -1.0000e+00
       -2 -1    0    0    0  501 -0.0000000000e+00 -0.0000000000e+00 -5.0765796787e+02 5.0765796787e+02 0.0000000000e+00 0.0000e+00 1.0000e+00
      -13  1    1    2    0    0 +1.0486484929e+02 +2.4315360301e+02 -4.4150407814e+02 5.1482634188e+02 0.0000000000e+00 0.0000e+00 1.0000e+00
       13  1    1    2    0    0 -1.0486484929e+02 -2.4315360301e+02 +5.6489308771e+02 6.2387860343e+02 0.0000000000e+00 0.0000e+00 -1.0000e+00
<mgrwt>
<rscale>  0 0.11320000E+04</rscale>
<asrwt>0</asrwt>
<pdfrwt beam="1">  1        2 0.97084150E-01 0.11320000E+04</pdfrwt>
<pdfrwt beam="2">  1       -2 0.78101226E-01 0.11320000E+04</pdfrwt>
<totfact> 0.84130066E+01</totfact>
</mgrwt>
<rwgt>
<wgt id='morphing_basis_vector_1'> +1.9736044e-04 </wgt>
<wgt id='morphing_basis_vector_2'> +1.2552847e-04 </wgt>
<wgt id='morphing_basis_vector_3'> +1.9546189e-04 </wgt>
<wgt id='morphing_basis_vector_4'> +1.2430119e-04 </wgt>
<wgt id='morphing_basis_vector_5'> +1.9725246e-04 </wgt>
</rwgt>
</event>
<event>
 4      1 +7.8865000e-07 1.11580100e+03 7.81860800e-03 8.58131000e-02
        2 -1    0    0  501    0 +0.0000000000e+00 +0.0000000000e+00 +3.2508180950e+03 3.2508180950e+03 0.0000000000e+00 0.0000e+00 -1.0000e+00
       -2 -1    0    0    0  501 -0.0000000000e+00 -0.0000000000e+00 -9.5745980592e+01 9.5745980592e+01 0.0000000000e+00 0.0000e+00 1.0000e+00
      -13  1    1    2    0    0 -1.2079890930e+02 -4.7407019579e+02 +7.7321237826e+02 9.1498213584e+02 0.0000000000e+00 0.0000e+00 1.0000e+00
       13  1    1    2    0    0 +1.2079890930e+02 +4.7407019579e+02 +2.3818597361e+03 2.4315819397e+03 0.0000000000e+00 0.0000e+00 -1.0000e+00
<mgrwt>
<rscale>  0 0.11158006E+04</rscale>
<asrwt>0</asrwt>
<pdfrwt beam="1">  1        2 0.50012578E+00 0.11158006E+04</pdfrwt>
<pdfrwt beam="2">  1       -2 0.14730153E-01 0.11158006E+04</pdfrwt>
<totfact> 0.47472156E+01</totfact>
</mgrwt>
<rwgt>
<wgt id='morphing_basis_vector_1'> +1.8783926e-04 </wgt>
<wgt id='morphing_basis_vector_2'> +1.2134204e-04 </wgt>
<wgt id='morphing_basis_vector_3'> +1.8552583e-04 </wgt>
<wgt id='morphing_basis_vector_4'> +1.1546613e-04 </wgt>
<wgt id='morphing_basis_vector_5'> +1.8539192e-04 </wgt>
</rwgt>
</event>
<event>
 4      1 +7.8865000e-07 1.08941100e+03 7.81860800e-03 8.60363600e-02
        2 -1    0    0  501    0 +0.0000000000e+00 +0.0000000000e+00 +2.2087091493e+02 2.2087091493e+02 0.0000000000e+00 0.0000e+00 1.0000e+00
       -2 -1    0    0    0  501 -0.0000000000e+00 -0.0000000000e+00 -1.3433375570e+03 1.3433375570e+03 0.0000000000e+00 0.0000e+00 -1.0000e+00
      -13  1    1    2    0    0 +3.5034267588e+02 +4.1702299097e+02 -5.5048570750e+02 7.7439181278e+02 0.0000000000e+00 0.0000e+00 -1.0000e+00
       13  1    1    2    0    0 -3.5034267588e+02 -4.1702299097e+02 -5.7198093455e+02 7.8981665912e+02 0.0000000000e+00 0.0000e+00 1.0000e+00
<mgrwt>
<rscale>  0 0.10894112E+04</rscale>
<asrwt>0</asrwt>
<pdfrwt beam="1">  1        2 0.33980140E-01 0.10894112E+04</pdfrwt>
<pdfrwt beam="2">  1       -2 0.20666732E+00 0.10894112E+04</pdfrwt>
<totfact> 0.19959742E+01</totfact>
</mgrwt>
<rwgt>
<wgt id='morphing_basis_vector_1'> +1.7735450e-04 </wgt>
<wgt id='morphing_basis_vector_2'> +1.2756672e-04 </wgt>
<wgt id='morphing_basis_vector_3'> +1.7451277e-04 </wgt>
<wgt id='morphing_basis_vector_4'> +9.5102372e-05 </wgt>
<wgt id='morphing_basis_vector_5'> +1.6676287e-04 </wgt>
</rwgt>
</event>
<event>
 4      1 +7.8865000e-07 1.17702100e+03 7.81860800e-03 8.53190100e-02
        2 -1    0    0  501    0 +0.0000000000e+00 +0.0000000000e+00 +4.1187641990e+02 4.1187641990e+02 0.0000000000e+00 0.0000e+00 1.0000e+00
       -2 -1    0    0    0  501 -0.0000000000e+00 -0.0000000000e+00 -8.4089483341e+02 8.4089483341e+02 0.0000000000e+00 0.0000e+00 -1.0000e+00
      -13  1    1    2    0    0 -1.3838495018e+02 +5.2103527791e+02 -4.6574399376e+02 7.1242236278e+02 0.0000000000e+00 0.0000e+00 -1.0000e+00
       13  1    1    2    0    0 +1.3838495018e+02 -5.2103527791e+02 +3.6725580252e+01 5.4034889054e+02 0.0000000000e+00 0.0000e+00 1.0000e+00
<mgrwt>
<rscale>  0 0.11770212E+04</rscale>
<asrwt>0</asrwt>
<pdfrwt beam="1">  1        2 0.63365603E-01 0.11770212E+04</pdfrwt>
<pdfrwt beam="2">  1       -2 0.12936844E+00 0.11770212E+04</pdfrwt>
<totfact> 0.40081910E+01</totfact>
</mgrwt>
<rwgt>
<wgt id='morphing_basis_vector_1'> +2.3019364e-04 </wgt>
<wgt id='morphing_basis_vector_2'> +1.5088830e-04 </wgt>
<wgt id='morphing_basis_vector_3'> +2.2997254e-04 </wgt>
<wgt id='morphing_basis_vector_4'> +1.4391407e-04 </wgt>
<wgt id='morphing_basis_vector_5'> +2.3265252e-04 </wgt>
</rwgt>
</event>
<event>
 4      1 +7.8865000e-07 1.13535400e+03 7.81860800e-03 8.56517400e-02
        2 -1    0    0  501    0 +0.0000000000e+00 +0.0000000000e+00 +7.1755694253e+02 7.1755694253e+02 0.0000000000e+00 0.0000e+00 -1.0000e+00
       -2 -1    0    0    0  501 -0.0000000000e+00 -0.0000000000e+00 -4.4910348345e+02 4.4910348345e+02 0.0000000000e+00 0.0000e+00 1.0000e+00
      -13  1    1    2    0    0 -1.1254800662e+02 +5.5501424304e+02 +9.3778168515e+01 5.7402282939e+02 0.0000000000e+00 0.0000e+00 1.0000e+00
       13  1    1    2    0    0 +1.1254800662e+02 -5.5501424304e+02 +1.7467529057e+02 5.9263759660e+02 0.0000000000e+00 0.0000e+00 -1.0000e+00
<mgrwt>
<rscale>  0 0.11353543E+04</rscale>
<asrwt>0</asrwt>
<pdfrwt beam="1">  1        2 0.11039338E+00 0.11353543E+04</pdfrwt>
<pdfrwt beam="2">  1       -2 0.69092844E-01 0.11353543E+04</pdfrwt>
<totfact> 0.94058167E+01</totfact>
</mgrwt>
<rwgt>
<wgt id='morphing_basis_vector_1'> +2.0510902e-04 </wgt>
<wgt id='morphing_basis_vector_2'> +1.4366241e-04 </wgt>
<wgt id='morphing_basis_vector_3'> +2.0373378e-04 </wgt>
<wgt id='morphing_basis_vector_4'> +1.1662465e-04 </wgt>
<wgt id='morphing_basis_vector_5'> +1.9914826e-04 </wgt>
</rwgt>
</event>
<event>
 4      1 +7.8865000e-07 1.17335000e+03 7.81860800e-03 8.53477300e-02
        2 -1    0    0  501    0 +0.0000000000e+00 +0.0000000000e+00 +5.4891175147e+02 5.4891175147e+02 0.0000000000e+00 0.0000e+00 -1.0000e+00
       -2 -1    0    0    0  501 -0.0000000000e+00 -0.0000000000e+00 -6.2703647656e+02 6.2703647656e+02 0.0000000000e+00 0.0000e+00 1.0000e+00
      -13  1    1    2    0    0 +2.2151523302e+02 -5.3099949738e+02 -1.5402565902e+02 5.9561175972e+02 0.0000000000e+00 0.0000e+00 -1.0000e+00
       13  1    1    2    0    0 -2.2151523302e+02 +5.3099949738e+02 +7.5900933940e+01 5.8033646831e+02 0.0000000000e+00 0.0000e+00 1.0000e+00
<mgrwt>
<rscale>  0 0.11733502E+04</rscale>
<asrwt>0</asrwt>
<pdfrwt beam="1">  1        2 0.84447962E-01 0.11733502E+04</pdfrwt>
<pdfrwt beam="2">  1       -2 0.96467150E-01 0.11733502E+04</pdfrwt>
<totfact> 0.60623140E+01</totfact>
</mgrwt>
<rwgt>
<wgt id='morphing_basis_vector_1'> +2.2977331e-04 </wgt>
<wgt id='morphing_basis_vector_2'> +1.5591658e-04 </wgt>
<wgt id='morphing_basis_vector_3'> +2.2966137e-04 </wgt>
<wgt id='morphing_basis_vector_4'> +1.3815985e-04 </wgt>
<wgt id='morphing_basis_vector_5'> +2.2933070e-04 </wgt>
</rwgt>
</event>
<event>
 4      1 +7.8865000e-07 1.12865200e+03 7.81860800e-03 8.57066700e-02
        2 -1    0    0  501    0 +0.0000000000e+00 +0.0000000000e+00 +1.1245021050e+03 1.1245021050e+03 0.0000000000e+00 0.0000e+00 -1.0000e+00
       -2 -1    0    0    0  501 -0.0000000000e+00 -0.0000000000e+00 -2.8320438945e+02 2.8320438945e+02 0.0000000000e+00 0.0000e+00 1.0000e+00
      -13  1    1    2    0    0 +3.7271126711e+01 +5.4935196855e+02 +2.6643759065e+02 6.1169086306e+02 0.0000000000e+00 0.0000e+00 1.0000e+00
       13  1    1    2    0    0 -3.7271126711e+01 -5.4935196855e+02 +5.7486012495e+02 7.9601563144e+02 0.0000000000e+00 0.0000e+00 -1.0000e+00
<mgrwt>
<rscale>  0 0.11286522E+04</rscale>
<asrwt>0</asrwt>
<pdfrwt beam="1">  1        2 0.17300032E+00 0.11286522E+04</pdfrwt>
<pdfrwt beam="2">  1       -2 0.43569907E-01 0.11286522E+04</pdfrwt>
<totfact> 0.12862818E+02</totfact>
</mgrwt>
<rwgt>
<wgt id='morphing_basis_vector_1'> +1.9820408e-04 </wgt>
<wgt id='morphing_basis_vector_2'> +1.3321227e-04 </wgt>
<wgt id='morphing_basis_vector_3'> +1.9641816e-04 </wgt>
<wgt id='morphing_basis_vector_4'> +1.1771010e-04 </wgt>
<wgt id='morphing_basis_vector_5'> +1.9444744e-04 </wgt>
</rwgt>
</event>
<event>
 4      1 +7.8865000e-07 1.20894300e+03 7.81860800e-03 8.50737600e-02
        2 -1    0    0  501    0 +0.0000000000e+00 +0.0000000000e+00 +9.2656429563e+02 9.2656429563e+02 0.0000000000e+00 0.0000e+00 -1.0000e+00
       -2 -1    0    0    0  501 -0.0000000000e+00 -0.0000000000e+00 -3.9434454628e+02 3.9434454628e+02 0.0000000000e+00 0.0000e+00 1.0000e+00
      -13  1    1    2    0    0 +3.3647054286e+02 -4.9389914055e+02 +1.6694767872e+02 6.2050005211e+02 0.0000000000e+00 0.0000e+00 1.0000e+00
       13  1    1    2    0    0 -3.3647054286e+02 +4.9389914055e+02 +3.6527207062e+02 7.0040878979e+02 0.0000000000e+00 0.0000e+00 -1.0000e+00
<mgrwt>
<rscale>  0 0.12089426E+04</rscale>
<asrwt>0</asrwt>
<pdfrwt beam="1">  1        2 0.14254835E+00 0.12089426E+04</pdfrwt>
<pdfrwt beam="2">  1       -2 0.60668392E-01 0.12089426E+04</pdfrwt>
<totfact> 0.88095813E+01</totfact>
</mgrwt>
<rwgt>
<wgt id='morphing_basis_vector_1'> +2.5810590e-04 </wgt>
<wgt id='morphing_basis_vector_2'> +1.7766343e-04 </wgt>
<wgt id='morphing_basis_vector_3'> +2.5967599e-04 </wgt>
<wgt id='morphing_basis_vector_4'> +1.5526215e-04 </wgt>
<wgt id='morphing_basis_vector_5'> +2.6017010e-04 </wgt>
</rwgt>
</event>
<event>
 4      1 +7.8865000e-07 1.08386000e+03 7.81860800e-03 8.60841500e-02
        2 -1    0    0  501    0 +0.0000000000e+00 +0.0000000000e+00 +1.3534761995e+03 1.3534761995e+03 0.0000000000e+00 0.0000e+00 1.0000e+00
       -2 -1    0    0    0  501 -0.0000000000e+00 -0.0000000000e+00 -2.1698806806e+02 2.1698806806e+02 0.0000000000e+00 0.0000e+00 -1.0000e+00
      -13  1    1    2    0    0 -2.4222525653e+02 -1.2367601663e+02 -1.1094233586e+02 2.9372952504e+02 0.0000000000e+00 0.0000e+00 -1.0000e+00
       13  1    1    2    0    0 +2.4222525653e+02 +1.2367601663e+02 +1.2474304673e+03 1.2767347425e+03 0.0000000000e+00 0.0000e+00 1.0000e+00
<mgrwt>
<rscale>  0 0.10838601E+04</rscale>
<asrwt>0</asrwt>
<pdfrwt beam="1">  1        2 0.20822710E+00 0.10838601E+04</pdfrwt>
<pdfrwt beam="2">  1       -2 0.33382781E-01 0.10838601E+04</pdfrwt>
<totfact> 0.15558837E+02</totfact>
</mgrwt>
<rwgt>
<wgt id='morphing_basis_vector_1'> +1.6770629e-04 </wgt>
<wgt id='morphing_basis_vector_2'> +1.0610218e-04 </wgt>
<wgt id='morphing_basis_vector_3'> +1.6453046e-04 </wgt>
<wgt id='morphing_basis_vector_4'> +1.0328800e-04 </wgt>
<wgt id='morphing_basis_vector_5'> +1.6380438e-04 </wgt>
</rwgt>
</event>
<event>
 4      1 +7.8865000e-07 1.27959200e+03 7.81860800e-03 8.45582100e-02
        2 -1    0    0  501    0 +0.0000000000e+00 +0.0000000000e+00 +2.2386050160e+03 2.2386050160e+03 0.0000000000e+00 0.0000e+00 1.0000e+00
       -2 -1    0    0    0  501 -0.0000000000e+00 -0.0000000000e+00 -1.8285443325e+02 1.8285443325e+02 0.0000000000e+00 0.0000e+00 -1.0000e+00
      -13  1    1    2    0    0 +3.0628791887e+02 +4.8622103361e+02 +1.5601514000e+03 1.6626170857e+03 0.0000000000e+00 0.0000e+00 -1.0000e+00
       13  1    1    2    0    0 -3.0628791887e+02 -4.8622103361e+02 +4.9559918280e+02 7.5884236358e+02 0.0000000000e+00 0.0000e+00 1.0000e+00
<mgrwt>
<rscale>  0 0.12795919E+04</rscale>
<asrwt>0</asrwt>
<pdfrwt beam="1">  1        2 0.34440075E+00 0.12795919E+04</pdfrwt>
<pdfrwt beam="2">  1       -2 0.28131453E-01 0.12795919E+04</pdfrwt>
<totfact> 0.66486894E+01</totfact>
</mgrwt>
<rwgt>
<wgt id='morphing_basis_vector_1'> +3.6208690e-04 </wgt>
<wgt id='morphing_basis_vector_2'> +3.4702846e-04 </wgt>
<wgt id='morphing_basis_vector_3'> +3.7550494e-04 </wgt>
<wgt id='morphing_basis_vector_4'> +1.2324133e-04 </wgt>
<wgt id='morphing_basis_vector_5'> +3.2535784e-04 </wgt>
</rwgt>
</event>
<event>
 4      1 +7.8865000e-07 1.26443900e+03 7.81860800e-03 8.46658000e-02
        2 -1    0    0  501    0 +0.0000000000e+00 +0.0000000000e+00 +2.0824296215e+03 2.0824296215e+03 0.0000000000e+00 0.0000e+00 -1.0000e+00
       -2 -1    0    0    0  501 -0.0000000000e+00 -0.0000000000e+00 -1.9193991188e+02 1.9193991188e+02 0.0000000000e+00 0.0000e+00 1.0000e+00
      -13  1    1    2    0    0 -4.8201808279e+02 -6.3524409746e+01 +2.1832088404e+02 5.3295477405e+02 0.0000000000e+00 0.0000e+00 1.0000e+00
       13  1    1    2    0    0 +4.8201808279e+02 +6.3524409746e+01 +1.6721688256e+03 1.7414147594e+03 0.0000000000e+00 0.0000e+00 -1.0000e+00
<mgrwt>
<rscale>  0 0.12644388E+04</rscale>
<asrwt>0</asrwt>
<pdfrwt beam="1">  1        2 0.32037377E+00 0.12644388E+04</pdfrwt>
<pdfrwt beam="2">  1       -2 0.29529219E-01 0.12644388E+04</pdfrwt>
<totfact> 0.74948071E+01</totfact>
</mgrwt>
<rwgt>
<wgt id='morphing_basis_vector_1'> +3.0043222e-04 </wgt>
<wgt id='morphing_basis_vector_2'> +1.9475344e-04 </wgt>
<wgt id='morphing_basis_vector_3'> +3.0397821e-04 </wgt>
<wgt id='morphing_basis_vector_4'> +1.9735026e-04 </wgt>
<wgt id='morphing_basis_vector_5'> +3.1506590e-04 </wgt>
</rwgt>
</event>
<event>
 4      1 +7.8865000e-07 1.08256400e+03 7.81860800e-03 8.60953500e-02
        2 -1    0    0  501    0 +0.0000000000e+00 +0.0000000000e+00 +1.1266236577e+03 1.1266236577e+03 0.0000000000e+00 0.0000e+00 -1.0000e+00
       -2 -1    0    0    0  501 -0.0000000000e+00 -0.0000000000e+00 -2.6005669379e+02 2.6005669379e+02 0.0000000000e+00 0.0000e+00 1.0000e+00
      -13  1    1    2    0    0 +4.2307727843e+02 +3.3486195076e+02 +4.8851359384e+02 7.2785468396e+02 0.0000000000e+00 0.0000e+00 1.0000e+00
       13  1    1    2    0    0 -4.2307727843e+02 -3.3486195076e+02 +3.7805337010e+02 6.5882566756e+02 0.0000000000e+00 0.0000e+00 -1.0000e+00
<mgrwt>
<rscale>  0 0.10825637E+04</rscale>
<asrwt>0</asrwt>
<pdfrwt beam="1">  1        2 0.17332671E+00 0.10825637E+04</pdfrwt>
<pdfrwt beam="2">  1       -2 0.40008723E-01 0.10825637E+04</pdfrwt>
<totfact> 0.15107506E+02</totfact>
</mgrwt>
<rwgt>
<wgt id='morphing_basis_vector_1'> +1.7487894e-04 </wgt>
<wgt id='morphing_basis_vector_2'> +1.2950976e-04 </wgt>
<wgt id='morphing_basis_vector_3'> +1.7186732e-04 </wgt>
<wgt id='morphing_basis_vector_4'> +8.9888727e-05 </wgt>
<wgt id='morphing_basis_vector_5'> +1.6214691e-04 </wgt>
</rwgt>
</event>
<event>
 4      1 +7.8865000e-07 1.13379200e+03 7.81860800e-03 8.56645100e-02
        2 -1    0    0  501    0 +0.0000000000e+00 +0.0000000000e+00 +1.2644385576e+03 1.2644385576e+03 0.0000000000e+00 0.0000e+00 -1.0000e+00
       -2 -1    0    0    0  501 -0.0000000000e+00 -0.0000000000e+00 -2.5416102109e+02 2.5416102109e+02 0.0000000000e+00 0.0000e+00 1.0000e+00
      -13  1    1    2    0    0 +2.9448790323e+02 -2.8465009255e+02 -1.9834177986e+01 4.1005145403e+02 0.0000000000e+00 0.0000e+00 1.0000e+00
       13  1    1    2    0    0 -2.9448790323e+02 +2.8465009255e+02 +1.0301117145e+03 1.1085481246e+03 0.0000000000e+00 0.0000e+00 -1.0000e+00
<mgrwt>
<rscale>  0 0.11337919E+04</rscale>
<asrwt>0</asrwt>
<pdfrwt beam="1">  1        2 0.19452900E+00 0.11337919E+04</pdfrwt>
<pdfrwt beam="2">  1       -2 0.39101696E-01 0.11337919E+04</pdfrwt>
<totfact> 0.13051000E+02</totfact>
</mgrwt>
<rwgt>
<wgt id='morphing_basis_vector_1'> +1.9876970e-04 </wgt>
<wgt id='morphing_basis_vector_2'> +1.2700172e-04 </wgt>
<wgt id='morphing_basis_vector_3'> +1.9694233e-04 </wgt>
<wgt id='morphing_basis_vector_4'> +1.2475095e-04 </wgt>
<wgt id='morphing_basis_vector_5'> +1.9856133e-04 </wgt>
</rwgt>
</event>
<event>
 4      1 +7.8865000e-07 1.17241800e+03 7.81860800e-03 8.53550500e-02
        2 -1    0    0  501    0 +0.0000000000e+00 +0.0000000000e+00 +3.2564247140e+02 3.2564247140e+02 0.0000000000e+00 0.0000e+00 1.0000e+00
       -2 -1    0    0    0  501 -0.0000000000e+00 -0.0000000000e+00 -1.0552707650e+03 1.0552707650e+03 0.0000000000e+00 0.0000e+00 -1.0000e+00
      -13  1    1    2    0    0 +2.6563292442e+01 -5.0578300194e+02 -7.1246250256e+02 8.7414236318e+02 0.0000000000e+00 0.0000e+00 -1.0000e+00
       13  1    1    2    0    0 -2.6563292442e+01 +5.0578300194e+02 -1.7165791030e+01 5.0677087321e+02 0.0000000000e+00 0.0000e+00 1.0000e+00
<mgrwt>
<rscale>  0 0.11724180E+04</rscale>
<asrwt>0</asrwt>
<pdfrwt beam="1">  1        2 0.50098842E-01 0.11724180E+04</pdfrwt>
<pdfrwt beam="2">  1       -2 0.16234935E+00 0.11724180E+04</pdfrwt>
<totfact> 0.27557797E+01</totfact>
</mgrwt>
<rwgt>
<wgt id='morphing_basis_vector_1'> +2.2617132e-04 </wgt>
<wgt id='morphing_basis_vector_2'> +1.4667556e-04 </wgt>
<wgt id='morphing_basis_vector_3'> +2.2570415e-04 </wgt>
<wgt id='morphing_basis_vector_4'> +1.4263976e-04 </wgt>
<wgt id='morphing_basis_vector_5'> +2.2888962e-04 </wgt>
</rwgt>
</event>
<event>
 4      1 +7.8865000e-07 1.16610500e+03 7.81860800e-03 8.54047500e-02
        2 -1    0    0  501    0 +0.0000000000e+00 +0.0000000000e+00 +1.0951247788e+03 1.0951247788e+03 0.0000000000e+00 0.0000e+00 -1.0000e+00
       -2 -1    0    0    0  501 -0.0000000000e+00 -0.0000000000e+00 -3.1042167659e+02 3.1042167659e+02 0.0000000000e+00 0.0000e+00 1.0000e+00
      -13  1    1    2    0    0 +3.1198362302e+02 -3.3968640448e+02 -3.7582525293e+01 4.6274515733e+02 0.0000000000e+00 0.0000e+00 1.0000e+00
       13  1    1    2    0    0 -3.1198362302e+02 +3.3968640448e+02 +8.2228562750e+02 9.4280129806e+02 0.0000000000e+00 0.0000e+00 -1.0000e+00
<mgrwt>
<rscale>  0 0.11661054E+04</rscale>
<asrwt>0</asrwt>
<pdfrwt beam="1">  1        2 0.16848073E+00 0.11661054E+04</pdfrwt>
<pdfrwt beam="2">  1       -2 0.47757182E-01 0.11661054E+04</pdfrwt>
<totfact> 0.11199423E+02</totfact>
</mgrwt>
<rwgt>
<wgt id='morphing_basis_vector_1'> +2.2116967e-04 </wgt>
<wgt id='morphing_basis_vector_2'> +1.4230068e-04 </wgt>
<wgt id='morphing_basis_vector_3'> +2.2042573e-04 </wgt>
<wgt id='morphing_basis_vector_4'> +1.4016669e-04 </wgt>
<wgt id='morphing_basis_vector_5'> +2.2375329e-04 </wgt>
</rwgt>
</event>
<event>
 4      1 +7.8865000e-07 1.07877100e+03 7.81860800e-03 8.61282300e-02
        2 -1    0    0  501    0 +0.0000000000e+00 +0.0000000000e+00 +1.6799717347e+03 1.6799717347e+03 0.0000000000e+00 0.0000e+00 -1.0000e+00
       -2 -1    0    0    0  501 -0.0000000000e+00 -0.0000000000e+00 -1.7317939681e+02 1.7317939681e+02 0.0000000000e+00 0.0000e+00 1.0000e+00
      -13  1    1    2    0    0 -2.0347031220e+02 +2.5267597615e+02 +1.3147940602e+01 3.2468166750e+02 0.0000000000e+00 0.0000e+00 1.0000e+00
       13  1    1    2    0    0 +2.0347031220e+02 -2.5267597615e+02 +1.4936443972e+03 1.5284694640e+03 0.0000000000e+00 0.0000e+00 -1.0000e+00
<mgrwt>
<rscale>  0 0.10787706E+04</rscale>
<asrwt>0</asrwt>
<pdfrwt beam="1">  1        2 0.25845718E+00 0.10787706E+04</pdfrwt>
<pdfrwt beam="2">  1       -2 0.26642985E-01 0.10787706E+04</pdfrwt>
<totfact> 0.15251354E+02</totfact>
</mgrwt>
<rwgt>
<wgt id='morphing_basis_vector_1'> +1.6483017e-04 </wgt>
<wgt id='morphing_basis_vector_2'> +1.0433111e-04 </wgt>
<wgt id='morphing_basis_vector_3'> +1.6153833e-04 </wgt>
<wgt id='morphing_basis_vector_4'> +1.0115554e-04 </wgt>
<wgt id='morphing_basis_vector_5'> +1.6052504e-04 </wgt>
</rwgt>
</event>
<event>
 4      1 +7.8865000e-07 1.19912200e+03 7.81860800e-03 8.51483500e-02
        2 -1    0    0  501    0 +0.0000000000e+00 +0.0000000000e+00 +3.0669590296e+03 3.0669590296e+03 0.0000000000e+00 0.0000e+00 -1.0000e+00
       -2 -1    0    0    0  501 -0.0000000000e+00 -0.0000000000e+00 -1.1720849119e+02 1.1720849119e+02 0.0000000000e+00 0.0000e+00 1.0000e+00
      -13  1    1    2    0    0 +4.8879245832e+02 -3.4299127249e+02 +1.3315674672e+03 1.4593262144e+03 0.0000000000e+00 0.0000e+00 1.0000e+00
       13  1    1    2    0    0 -4.8879245832e+02 +3.4299127249e+02 +1.6181830713e+03 1.7248413065e+03 0.0000000000e+00 0.0000e+00 -1.0000e+00
<mgrwt>
<rscale>  0 0.11991224E+04</rscale>
<asrwt>0</asrwt>
<pdfrwt beam="1">  1        2 0.47183979E+00 0.11991224E+04</pdfrwt>
<pdfrwt beam="2">  1       -2 0.18032078E-01 0.11991224E+04</pdfrwt>
<totfact> 0.44768045E+01</totfact>
</mgrwt>
<rwgt>
<wgt id='morphing_basis_vector_1'> +2.5155781e-04 </wgt>
<wgt id='morphing_basis_vector_2'> +1.7602179e-04 </wgt>
<wgt id='morphing_basis_vector_3'> +2.5283321e-04 </wgt>
<wgt id='morphing_basis_vector_4'> +1.4778921e-04 </wgt>
<wgt id='morphing_basis_vector_5'> +2.5119746e-04 </wgt>
</rwgt>
</event>
<event>
 4      1 +7.8865000e-07 1.20883500e+03 7.81860800e-03 8.50745800e-02
        2 -1    0    0  501    0 +0.0000000000e+00 +0.0000000000e+00 +1.5496190680e+03 1.5496190680e+03 0.0000000000e+00 0.0000e+00 -1.0000e+00
       -2 -1    0    0    0  501 -0.0000000000e+00 -0.0000000000e+00 -2.3574849542e+02 2.3574849542e+02 0.0000000000e+00 0.0000e+00 1.0000e+00
      -13  1    1    2    0    0 -2.7696736780e+02 +5.0216778303e+02 +9.3885910129e+02 1.1001544515e+03 0.0000000000e+00 0.0000e+00 1.0000e+00
       13  1    1    2    0    0 +2.7696736780e+02 -5.0216778303e+02 +3.7501147132e+02 6.8521311193e+02 0.0000000000e+00 0.0000e+00 -1.0000e+00
<mgrwt>
<rscale>  0 0.12088348E+04</rscale>
<asrwt>0</asrwt>
<pdfrwt beam="1">  1        2 0.23840293E+00 0.12088348E+04</pdfrwt>
<pdfrwt beam="2">  1       -2 0.36269000E-01 0.12088348E+04</pdfrwt>
<totfact> 0.10295641E+02</totfact>
</mgrwt>
<rwgt>
<wgt id='morphing_basis_vector_1'> +2.7948813e-04 </wgt>
<wgt id='morphing_basis_vector_2'> +2.4207553e-04 </wgt>
<wgt id='morphing_basis_vector_3'> +2.8402666e-04 </wgt>
<wgt id='morphing_basis_vector_4'> +1.1824255e-04 </wgt>
<wgt id='morphing_basis_vector_5'> +2.5755545e-04 </wgt>
</rwgt>
</event>
<event>
 4      1 +7.8865000e-07 1.24636500e+03 7.81860800e-03 8.47962100e-02
        2 -1    0    0  501    0 +0.0000000000e+00 +0.0000000000e+00 +2.3803799476e+03 2.3803799476e+03 0.0000000000e+00 0.0000e+00 -1.0000e+00
       -2 -1    0    0    0  501 -0.0000000000e+00 -0.0000000000e+00 -1.6314883456e+02 1.6314883456e+02 0.0000000000e+00 0.0000e+00 1.0000e+00
      -13  1    1    2    0    0 +5.9519063948e+02 +1.8152854769e+02 +1.1778722641e+03 1.3321364725e+03 0.0000000000e+00 0.0000e+00 1.0000e+00
       13  1    1    2    0    0 -5.9519063948e+02 -1.8152854769e+02 +1.0393588490e+03 1.2113923097e+03 0.0000000000e+00 0.0000e+00 -1.0000e+00
<mgrwt>
<rscale>  0 0.12463647E+04</rscale>
<asrwt>0</asrwt>
<pdfrwt beam="1">  1        2 0.36621228E+00 0.12463647E+04</pdfrwt>
<pdfrwt beam="2">  1       -2 0.25099822E-01 0.12463647E+04</pdfrwt>
<totfact> 0.67350020E+01</totfact>
</mgrwt>
<rwgt>
<wgt id='morphing_basis_vector_1'> +2.9634309e-04 </wgt>
<wgt id='morphing_basis_vector_2'> +2.1983121e-04 </wgt>
<wgt id='morphing_basis_vector_3'> +3.0095557e-04 </wgt>
<wgt id='morphing_basis_vector_4'> +1.6498310e-04 </wgt>
<wgt id='morphing_basis_vector_5'> +2.9509400e-04 </wgt>
</rwgt>
</event>
<event>
 4      1 +7.8865000e-07 1.20377300e+03 7.81860800e-03 8.51129400e-02
        2 -1    0    0  501    0 +0.0000000000e+00 +0.0000000000e+00 +3.7336221883e+02 3.7336221883e+02 0.0000000000e+00 0.0000e+00 1.0000e+00
       -2 -1    0    0    0  501 -0.0000000000e+00 -0.0000000000e+00 -9.7028422967e+02 9.7028422967e+02 0.0000000000e+00 0.0000e+00 -1.0000e+00
      -13  1    1    2    0    0 -5.6546598179e+02 +7.9875244076e+01 -5.1064285355e+02 7.6608612770e+02 0.0000000000e+00 0.0000e+00 -1.0000e+00
       13  1    1    2    0    0 +5.6546598179e+02 -7.9875244076e+01 -8.6279157291e+01 5.7756032080e+02 0.0000000000e+00 0.0000e+00 1.0000e+00
<mgrwt>
<rscale>  0 0.12037732E+04</rscale>
<asrwt>0</asrwt>
<pdfrwt beam="1">  1        2 0.57440342E-01 0.12037732E+04</pdfrwt>
<pdfrwt beam="2">  1       -2 0.14927450E+00 0.12037732E+04</pdfrwt>
<totfact> 0.30098470E+01</totfact>
</mgrwt>
<rwgt>
<wgt id='morphing_basis_vector_1'> +2.5143587e-04 </wgt>
<wgt id='morphing_basis_vector_2'> +1.6717101e-04 </wgt>
<wgt id='morphing_basis_vector_3'> +2.5242057e-04 </wgt>
<wgt id='morphing_basis_vector_4'> +1.5680787e-04 </wgt>
<wgt id='morphing_basis_vector_5'> +2.5579211e-04 </wgt>
</rwgt>
</event>
<event>
 4      1 +7.8865000e-07 1.11839700e+03 7.81860800e-03 8.57914900e-02
        2 -1    0    0  501    0 +0.0000000000e+00 +0.0000000000e+00 +9.3356537688e+02 9.3356537688e+02 0.0000000000e+00 0.0000e+00 1.0000e+00
       -2 -1    0    0    0  501 -0.0000000000e+00 -0.0000000000e+00 -3.3495551156e+02 3.3495551156e+02 0.0000000000e+00 0.0000e+00 -1.0000e+00
      -13  1    1    2    0    0 +3.5560821686e+02 -3.9005247097e+02 +8.9841107324e+01 5.3541531410e+02 0.0000000000e+00 0.0000e+00 -1.0000e+00
       13  1    1    2    0    0 -3.5560821686e+02 +3.9005247097e+02 +5.0876875799e+02 7.3310557434e+02 0.0000000000e+00 0.0000e+00 1.0000e+00
<mgrwt>
<rscale>  0 0.11183968E+04</rscale>
<asrwt>0</asrwt>
<pdfrwt beam="1">  1        2 0.14362544E+00 0.11183968E+04</pdfrwt>
<pdfrwt beam="2">  1       -2 0.51531618E-01 0.11183968E+04</pdfrwt>
<totfact> 0.12195647E+02</totfact>
</mgrwt>
<rwgt>
<wgt id='morphing_basis_vector_1'> +1.9042653e-04 </wgt>
<wgt id='morphing_basis_vector_2'> +1.2527796e-04 </wgt>
<wgt id='morphing_basis_vector_3'> +1.8824465e-04 </wgt>
<wgt id='morphing_basis_vector_4'> +1.1505333e-04 </wgt>
<wgt id='morphing_basis_vector_5'> +1.8713948e-04 </wgt>
</rwgt>
</event>
<event>
 4      1 +7.8865000e-07 1.24110300e+03 7.81860800e-03 8.48346100e-02
        2 -1    0    0  501    0 +0.0000000000e+00 +0.0000000000e+00 +1.9382467251e+03 1.9382467251e+03 0.0000000000e+00 0.0000e+00 1.0000e+00
       -2 -1    0    0    0  501 -0.0000000000e+00 -0.0000000000e+00 -1.9867647364e+02 1.9867647364e+02 0.0000000000e+00 0.0000e+00 -1.0000e+00
      -13  1    1    2    0    0 -5.0001503645e+01 +6.1850985173e+02 +8.6044332694e+02 1.0608568734e+03 0.0000000000e+00 0.0000e+00 -1.0000e+00
       13  1    1    2    0    0 +5.0001503645e+01 -6.1850985173e+02 +8.7912692454e+02 1.0760663253e+03 0.0000000000e+00 0.0000e+00 1.0000e+00
<mgrwt>
<rscale>  0 0.12411028E+04</rscale>
<asrwt>0</asrwt>
<pdfrwt beam="1">  1        2 0.29819179E+00 0.12411028E+04</pdfrwt>
<pdfrwt beam="2">  1       -2 0.30565613E-01 0.12411028E+04</pdfrwt>
<totfact> 0.85069292E+01</totfact>
</mgrwt>
<rwgt>
<wgt id='morphing_basis_vector_1'> +2.8913833e-04 </wgt>
<wgt id='morphing_basis_vector_2'> +2.0880740e-04 </wgt>
<wgt id='morphing_basis_vector_3'> +2.9301446e-04 </wgt>
<wgt id='morphing_basis_vector_4'> +1.6640111e-04 </wgt>
<wgt id='morphing_basis_vector_5'> +2.9017928e-04 </wgt>
</rwgt>
</event>
<event>
 4      1 +7.8865000e-07 1.13016900e+03 7.81860800e-03 8.56942000e-02
        2 -1    0    0  501    0 +0.0000000000e+00 +0.0000000000e+00 +1.2182758666e+03 1.2182758666e+03 0.0000000000e+00 0.0000e+00 -1.0000e+00
       -2 -1    0    0    0  501 -0.0000000000e+00 -0.0000000000e+00 -2.6210859389e+02 2.6210859389e+02 0.0000000000e+00 0.0000e+00 1.0000e+00
      -13  1    1    2    0    0 -2.9322689976e+02 -1.6965914354e+02 -1.1434414285e+02 3.5754835020e+02 0.0000000000e+00 0.0000e+00 1.0000e+00
       13  1    1    2    0    0 +2.9322689976e+02 +1.6965914354e+02 +1.0705114156e+03 1.1228361103e+03 0.0000000000e+00 0.0000e+00 -1.0000e+00
<mgrwt>
<rscale>  0 0.11301691E+04</rscale>
<asrwt>0</asrwt>
<pdfrwt beam="1">  1        2 0.18742705E+00 0.11301691E+04</pdfrwt>
<pdfrwt beam="2">  1       -2 0.40324400E-01 0.11301691E+04</pdfrwt>
<totfact> 0.13107227E+02</totfact>
</mgrwt>
<rwgt>
<wgt id='morphing_basis_vector_1'> +1.9622992e-04 </wgt>
<wgt id='morphing_basis_vector_2'> +1.2494201e-04 </wgt>
<wgt id='morphing_basis_vector_3'> +1.9428161e-04 </wgt>
<wgt id='morphing_basis_vector_4'> +1.2333919e-04 </wgt>
<wgt id='morphing_basis_vector_5'> +1.9588862e-04 </wgt>
</rwgt>
</event>
<event>
 4      1 +7.8865000e-07 1.12678300e+03 7.81860800e-03 8.57220600e-02
        2 -1    0    0  501    0 +0.0000000000e+00 +0.0000000000e+00 +2.2930505935e+03 2.2930505935e+03 0.0000000000e+00 0.0000e+00 -1.0000e+00
       -2 -1    0    0    0  501 -0.0000000000e+00 -0.0000000000e+00 -1.3842250303e+02 1.3842250303e+02 0.0000000000e+00 0.0000e+00 1.0000e+00
      -13  1    1    2    0    0 -1.3867733861e+02 -5.2205095279e+02 +7.3177391826e+02 9.0953926194e+02 0.0000000000e+00 0.0000e+00 1.0000e+00
       13  1    1    2    0    0 +1.3867733861e+02 +5.2205095279e+02 +1.4228541722e+03 1.5219338346e+03 0.0000000000e+00 0.0000e+00 -1.0000e+00
<mgrwt>
<rscale>  0 0.11267827E+04</rscale>
<asrwt>0</asrwt>
<pdfrwt beam="1">  1        2 0.35277699E+00 0.11267827E+04</pdfrwt>
<pdfrwt beam="2">  1       -2 0.21295771E-01 0.11267827E+04</pdfrwt>
<totfact> 0.10112234E+02</totfact>
</mgrwt>
<rwgt>
<wgt id='morphing_basis_vector_1'> +1.9625951e-04 </wgt>
<wgt id='morphing_basis_vector_2'> +1.3020978e-04 </wgt>
<wgt id='morphing_basis_vector_3'> +1.9436354e-04 </wgt>
<wgt id='morphing_basis_vector_4'> +1.1807135e-04 </wgt>
<wgt id='morphing_basis_vector_5'> +1.9315538e-04 </wgt>
</rwgt>
</event>
<event>
 4      1 +7.8865000e-07 1.15765700e+03 7.81860800e-03 8.54718000e-02
        2 -1    0    0  501    0 +0.0000000000e+00 +0.0000000000e+00 +2.0427611904e+02 2.0427611904e+02 0.0000000000e+00 0.0000e+00 1.0000e+00
       -2 -1    0    0    0  501 -0.0000000000e+00 -0.0000000000e+00 -1.6401443291e+03 1.6401443291e+03 0.0000000000e+00 0.0000e+00 -1.0000e+00
      -13  1    1    2    0    0 +1.0309867346e+02 +5.1251417661e+02 -1.1138210242e+03 1.2304053770e+03 0.0000000000e+00 0.0000e+00 -1.0000e+00
       13  1    1    2    0    0 -1.0309867346e+02 -5.1251417661e+02 -3.2204718584e+02 6.1401507116e+02 0.0000000000e+00 0.0000e+00 1.0000e+00
<mgrwt>
<rscale>  0 0.11576568E+04</rscale>
<asrwt>0</asrwt>
<pdfrwt beam="1">  1        2 0.31427096E-01 0.11576568E+04</pdfrwt>
<pdfrwt beam="2">  1       -2 0.25232989E+00 0.11576568E+04</pdfrwt>
<totfact> 0.10371138E+01</totfact>
</mgrwt>
<rwgt>
<wgt id='morphing_basis_vector_1'> +2.1603873e-04 </wgt>
<wgt id='morphing_basis_vector_2'> +1.4089021e-04 </wgt>
<wgt id='morphing_basis_vector_3'> +2.1508161e-04 </wgt>
<wgt id='morphing_basis_vector_4'> +1.3448568e-04 </wgt>
<wgt id='morphing_basis_vector_5'> +2.1685110e-04 </wgt>
</rwgt>
</event>
<event>
 4      1 +7.8865000e-07 1.17522000e+03 7.81860800e-03 8.53330900e-02
        2 -1    0    0  501    0 +0.0000000000e+00 +0.0000000000e+00 +4.4283587010e+02 4.4283587010e+02 0.0000000000e+00 0.0000e+00 -1.0000e+00
       -2 -1    0    0    0  501 -0.0000000000e+00 -0.0000000000e+00 -7.7971376170e+02 7.7971376170e+02 0.0000000000e+00 0.0000e+00 1.0000e+00
      -13  1    1    2    0    0 +1.9924516455e+02 -3.6247739954e+02 -6.0261662826e+02 7.3091401781e+02 0.0000000000e+00 0.0000e+00 1.0000e+00
       13  1    1    2    0    0 -1.9924516455e+02 +3.6247739954e+02 +2.6573873666e+02 4.9163561398e+02 0.0000000000e+00 0.0000e+00 -1.0000e+00
<mgrwt>
<rscale>  0 0.11752195E+04</rscale>
<asrwt>0</asrwt>
<pdfrwt beam="1">  1        2 0.68128596E-01 0.11752195E+04</pdfrwt>
<pdfrwt beam="2">  1       -2 0.11995596E+00 0.11752195E+04</pdfrwt>
<totfact> 0.45055367E+01</totfact>
</mgrwt>
<rwgt>
<wgt id='morphing_basis_vector_1'> +2.2749897e-04 </wgt>
<wgt id='morphing_basis_vector_2'> +1.4588189e-04 </wgt>
<wgt id='morphing_basis_vector_3'> +2.2705640e-04 </wgt>
<wgt id='morphing_basis_vector_4'> +1.4530751e-04 </wgt>
<wgt id='morphing_basis_vector_5'> +2.3130125e-04 </wgt>
</rwgt>
</event>
<event>
 4      1 +7.8865000e-07 1.13399900e+03 7.81860800e-03 8.56628100e-02
        2 -1    0    0  501    0 +0.0000000000e+00 +0.0000000000e+00 +4.6149577241e+02 4.6149577241e+02 0.0000000000e+00 0.0000e+00 -1.0000e+00
       -2 -1    0    0    0  501 -0.0000000000e+00 -0.0000000000e+00 -6.9662323505e+02 6.9662323505e+02 0.0000000000e+00 0.0000e+00 1.0000e+00
      -13  1    1    2    0    0 +4.1236748825e+02 -5.1573891393e+01 -5.1149037292e+02 6.5903657959e+02 0.0000000000e+00 0.0000e+00 1.0000e+00
       13  1    1    2    0    0 -4.1236748825e+02 +5.1573891393e+01 +2.7636291028e+02 4.9908242788e+02 0.0000000000e+00 0.0000e+00 -1.0000e+00
<mgrwt>
<rscale>  0 0.11339994E+04</rscale>
<asrwt>0</asrwt>
<pdfrwt beam="1">  1        2 0.70999349E-01 0.11339994E+04</pdfrwt>
<pdfrwt beam="2">  1       -2 0.10717281E+00 0.11339994E+04</pdfrwt>
<totfact> 0.57420433E+01</totfact>
</mgrwt>
<rwgt>
<wgt id='morphing_basis_vector_1'> +1.9892943e-04 </wgt>
<wgt id='morphing_basis_vector_2'> +1.2716096e-04 </wgt>
<wgt id='morphing_basis_vector_3'> +1.9711009e-04 </wgt>
<wgt id='morphing_basis_vector_4'> +1.2480974e-04 </wgt>
<wgt id='morphing_basis_vector_5'> +1.9871380e-04 </wgt>
</rwgt>
</event>
<event>
 4      1 +7.8865000e-07 1.19341000e+03 7.81860800e-03 8.51920900e-02
        2 -1    0    0  501    0 +0.0000000000e+00 +0.0000000000e+00 +1.4510845109e+03 1.4510845109e+03 0.0000000000e+00 0.0000e+00 1.0000e+00
       -2 -1    0    0    0  501 -0.0000000000e+00 -0.0000000000e+00 -2.4537296807e+02 2.4537296807e+02 0.0000000000e+00 0.0000e+00 -1.0000e+00
      -13  1    1    2    0    0 -1.1016812848e+02 -3.5336581568e+02 -6.2459321839e+01 3.7537392438e+02 0.0000000000e+00 0.0000e+00 -1.0000e+00
       13  1    1    2    0    0 +1.1016812848e+02 +3.5336581568e+02 +1.2681708646e+03 1.3210835546e+03 0.0000000000e+00 0.0000e+00 1.0000e+00
<mgrwt>
<rscale>  0 0.11934101E+04</rscale>
<asrwt>0</asrwt>
<pdfrwt beam="1">  1        2 0.22324376E+00 0.11934101E+04</pdfrwt>
<pdfrwt beam="2">  1       -2 0.37749688E-01 0.11934101E+04</pdfrwt>
<totfact> 0.10869800E+02</totfact>
</mgrwt>
<rwgt>
<wgt id='morphing_basis_vector_1'> +2.4095563e-04 </wgt>
<wgt id='morphing_basis_vector_2'> +1.5446385e-04 </wgt>
<wgt id='morphing_basis_vector_3'> +2.4119015e-04 </wgt>
<wgt id='morphing_basis_vector_4'> +1.5528067e-04 </wgt>
<wgt id='morphing_basis_vector_5'> +2.4687766e-04 </wgt>
</rwgt>
</event>
<event>
 4      1 +7.8865000e-07 1.10123000e+03 7.81860800e-03 8.59355800e-02
        2 -1    0    0  501    0 +0.0000000000e+00 +0.0000000000e+00 +1.0579007562e+03 1.0579007562e+03 0.0000000000e+00 0.0000e+00 1.0000e+00
       -2 -1    0    0    0  501 -0.0000000000e+00 -0.0000000000e+00 -2.8658333520e+02 2.8658333520e+02 0.0000000000e+00 0.0000e+00 -1.0000e+00
      -13  1    1    2    0    0 +4.4286782316e+02 +1.8512869856e+02 +5.6306605020e+01 4.8329595238e+02 0.0000000000e+00 0.0000e+00 -1.0000e+00
       13  1    1    2    0    0 -4.4286782316e+02 -1.8512869856e+02 +7.1501081601e+02 8.6118813905e+02 0.0000000000e+00 0.0000e+00 1.0000e+00
<mgrwt>
<rscale>  0 0.11012297E+04</rscale>
<asrwt>0</asrwt>
<pdfrwt beam="1">  1        2 0.16275396E+00 0.11012297E+04</pdfrwt>
<pdfrwt beam="2">  1       -2 0.44089744E-01 0.11012297E+04</pdfrwt>
<totfact> 0.13818207E+02</totfact>
</mgrwt>
<rwgt>
<wgt id='morphing_basis_vector_1'> +1.7876785e-04 </wgt>
<wgt id='morphing_basis_vector_2'> +1.1519852e-04 </wgt>
<wgt id='morphing_basis_vector_3'> +1.7605087e-04 </wgt>
<wgt id='morphing_basis_vector_4'> +1.0924948e-04 </wgt>
<wgt id='morphing_basis_vector_5'> +1.7526633e-04 </wgt>
</rwgt>
</event>
<event>
 4      1 +7.8865000e-07 1.09203800e+03 7.81860800e-03 8.60138400e-02
        2 -1    0    0  501    0 +0.0000000000e+00 +0.0000000000e+00 +1.1575528590e+03 1.1575528590e+03 0.0000000000e+00 0.0000e+00 1.0000e+00
       -2 -1    0    0    0  501 -0.0000000000e+00 -0.0000000000e+00 -2.5755790449e+02 2.5755790449e+02 0.0000000000e+00 0.0000e+00 -1.0000e+00
      -13  1    1    2    0    0 -3.5926152854e+02 +1.0944684190e+02 -6.3603764752e+01 3.8091061416e+02 0.0000000000e+00 0.0000e+00 -1.0000e+00
       13  1    1    2    0    0 +3.5926152854e+02 -1.0944684190e+02 +9.6359871922e+02 1.0342001493e+03 0.0000000000e+00 0.0000e+00 1.0000e+00
<mgrwt>
<rscale>  0 0.10920383E+04</rscale>
<asrwt>0</asrwt>
<pdfrwt beam="1">  1        2 0.17808505E+00 0.10920383E+04</pdfrwt>
<pdfrwt beam="2">  1       -2 0.39624294E-01 0.10920383E+04</pdfrwt>
<totfact> 0.14737105E+02</totfact>
</mgrwt>
<rwgt>
<wgt id='morphing_basis_vector_1'> +1.7262400e-04 </wgt>
<wgt id='morphing_basis_vector_2'> +1.0964648e-04 </wgt>
<wgt id='morphing_basis_vector_3'> +1.6964788e-04 </wgt>
<wgt id='morphing_basis_vector_4'> +1.0643163e-04 </wgt>
<wgt id='morphing_basis_vector_5'> +1.6915387e-04 </wgt>
</rwgt>
</event>
<event>
 4      1 +7.8865000e-07 1.26170800e+03 7.81860800e-03 8.46853500e-02
        2 -1    0    0  501    0 +0.0000000000e+00 +0.0000000000e+00 +2.5175361859e+03 2.5175361859e+03 0.0000000000e+00 0.0000e+00 1.0000e+00
       -2 -1    0    0    0  501 -0.0000000000e+00 -0.0000000000e+00 -1.5808189320e+02 1.5808189320e+02 0.0000000000e+00 0.0000e+00 -1.0000e+00
      -13  1    1    2    0    0 -4.6401831244e+01 -5.6868321880e+02 +6.0903234589e+02 8.3455025710e+02 0.0000000000e+00 0.0000e+00 -1.0000e+00
       13  1    1    2    0    0 +4.6401831244e+01 +5.6868321880e+02 +1.7504219469e+03 1.8410678220e+03 0.0000000000e+00 0.0000e+00 1.0000e+00
<mgrwt>
<rscale>  0 0.12617082E+04</rscale>
<asrwt>0</asrwt>
<pdfrwt beam="1">  1        2 0.38731323E+00 0.12617082E+04</pdfrwt>
<pdfrwt beam="2">  1       -2 0.24320293E-01 0.12617082E+04</pdfrwt>
<totfact> 0.58985364E+01</totfact>
</mgrwt>
<rwgt>
<wgt id='morphing_basis_vector_1'> +2.9929030e-04 </wgt>
<wgt id='morphing_basis_vector_2'> +1.9706787e-04 </wgt>
<wgt id='morphing_basis_vector_3'> +3.0292762e-04 </wgt>
<wgt id='morphing_basis_vector_4'> +1.9325471e-04 </wgt>
<wgt id='morphing_basis_vector_5'> +3.1205157e-04 </wgt>
</rwgt>
</event>
<event>
 4      1 +7.8865000e-07 1.16678700e+03 7.81860800e-03 8.53993700e-02
        2 -1    0    0  501    0 +0.0000000000e+00 +0.0000000000e+00 +5.4022749754e+02 5.4022749754e+02 0.0000000000e+00 0.0000e+00 -1.0000e+00
       -2 -1    0    0    0  501 -0.0000000000e+00 -0.0000000000e+00 -6.3000837682e+02 6.3000837682e+02 0.0000000000e+00 0.0000e+00 1.0000e+00
      -13  1    1    2    0    0 -3.6110045100e+02 -1.0286092826e+02 -4.9272345264e+02 6.1947583250e+02 0.0000000000e+00 0.0000e+00 1.0000e+00
       13  1    1    2    0    0 +3.6110045100e+02 +1.0286092826e+02 +4.0294257336e+02 5.5076004185e+02 0.0000000000e+00 0.0000e+00 -1.0000e+00
<mgrwt>
<rscale>  0 0.11667868E+04</rscale>
<asrwt>0</asrwt>
<pdfrwt beam="1">  1        2 0.83111923E-01 0.11667868E+04</pdfrwt>
<pdfrwt beam="2">  1       -2 0.96924365E-01 0.11667868E+04</pdfrwt>
<totfact> 0.61091777E+01</totfact>
</mgrwt>
<rwgt>
<wgt id='morphing_basis_vector_1'> +2.2130383e-04 </wgt>
<wgt id='morphing_basis_vector_2'> +1.4156080e-04 </wgt>
<wgt id='morphing_basis_vector_3'> +2.2054735e-04 </wgt>
<wgt id='morphing_basis_vector_4'> +1.4111205e-04 </wgt>
<wgt id='morphing_basis_vector_5'> +2.2434897e-04 </wgt>
</rwgt>
</event>
<event>
 4      1 +7.8865000e-07 1.09543900e+03 7.81860800e-03 8.59848000e-02
        2 -1    0    0  501    0 +0.0000000000e+00 +0.0000000000e+00 +2.7958447686e+03 2.7958447686e+03 0.0000000000e+00 0.0000e+00 1.0000e+00
       -2 -1    0    0    0  501 -0.0000000000e+00 -0.0000000000e+00 -1.0730082175e+02 1.0730082175e+02 0.0000000000e+00 0.0000e+00 -1.0000e+00
      -13  1    1    2    0    0 +2.1619136254e+02 +4.7233386145e+02 +8.8403093174e+02 1.0253529491e+03 0.0000000000e+00 0.0000e+00 -1.0000e+00
       13  1    1    2    0    0 -2.1619136254e+02 -4.7233386145e+02 +1.8045130151e+03 1.8777926412e+03 0.0000000000e+00 0.0000e+00 1.0000e+00
<mgrwt>
<rscale>  0 0.10954386E+04</rscale>
<asrwt>0</asrwt>
<pdfrwt beam="1">  1        2 0.43012991E+00 0.10954386E+04</pdfrwt>
<pdfrwt beam="2">  1       -2 0.16507821E-01 0.10954386E+04</pdfrwt>
<totfact> 0.77781336E+01</totfact>
</mgrwt>
<rwgt>
<wgt id='morphing_basis_vector_1'> +1.7628438e-04 </wgt>
<wgt id='morphing_basis_vector_2'> +1.1592049e-04 </wgt>
<wgt id='morphing_basis_vector_3'> +1.7345435e-04 </wgt>
<wgt id='morphing_basis_vector_4'> +1.0516785e-04 </wgt>
<wgt id='morphing_basis_vector_5'> +1.7124914e-04 </wgt>
</rwgt>
</event>
<event>
 4      1 +7.8865000e-07 1.12591100e+03 7.81860800e-03 8.57292500e-02
        2 -1    0    0  501    0 +0.0000000000e+00 +0.0000000000e+00 +2.3084335615e+03 2.3084335615e+03 0.0000000000e+00 0.0000e+00 1.0000e+00
       -2 -1    0    0    0  501 -0.0000000000e+00 -0.0000000000e+00 -1.3728741949e+02 1.3728741949e+02 0.0000000000e+00 0.0000e+00 -1.0000e+00
      -13  1    1    2    0    0 +3.7329323703e+02 -3.1580249053e+02 +4.7952956747e+02 6.8485594099e+02 0.0000000000e+00 0.0000e+00 -1.0000e+00
       13  1    1    2    0    0 -3.7329323703e+02 +3.1580249053e+02 +1.6916165746e+03 1.7608650400e+03 0.0000000000e+00 0.0000e+00 1.0000e+00
<mgrwt>
<rscale>  0 0.11259110E+04</rscale>
<asrwt>0</asrwt>
<pdfrwt beam="1">  1        2 0.35514360E+00 0.11259110E+04</pdfrwt>
<pdfrwt beam="2">  1       -2 0.21121143E-01 0.11259110E+04</pdfrwt>
<totfact> 0.10047600E+02</totfact>
</mgrwt>
<rwgt>
<wgt id='morphing_basis_vector_1'> +1.9423875e-04 </wgt>
<wgt id='morphing_basis_vector_2'> +1.2544975e-04 </wgt>
<wgt id='morphing_basis_vector_3'> +1.9221728e-04 </wgt>
<wgt id='morphing_basis_vector_4'> +1.2009478e-04 </wgt>
<wgt id='morphing_basis_vector_5'> +1.9267639e-04 </wgt>
</rwgt>
</event>
<event>
 4      1 +7.8865000e-07 1.08229100e+03 7.81860800e-03 8.60977100e-02
        2 -1    0    0  501    0 +0.0000000000e+00 +0.0000000000e+00 +1.4302759037e+03 1.4302759037e+03 0.0000000000e+00 0.0000e+00 1.0000e+00
       -2 -1    0    0    0  501 -0.0000000000e+00 -0.0000000000e+00 -2.0474250973e+02 2.0474250973e+02 0.0000000000e+00 0.0000e+00 -1.0000e+00
      -13  1    1    2    0    0 -3.0649341580e+02 +4.4597146921e+02 +6.0810725391e+02 8.1401670593e+02 0.0000000000e+00 0.0000e+00 -1.0000e+00
       13  1    1    2    0    0 +3.0649341580e+02 -4.4597146921e+02 +6.1742614009e+02 8.2100170752e+02 0.0000000000e+00 0.0000e+00 1.0000e+00
<mgrwt>
<rscale>  0 0.10822907E+04</rscale>
<asrwt>0</asrwt>
<pdfrwt beam="1">  1        2 0.22004244E+00 0.10822907E+04</pdfrwt>
<pdfrwt beam="2">  1       -2 0.31498849E-01 0.10822907E+04</pdfrwt>
<totfact> 0.15630564E+02</totfact>
</mgrwt>
<rwgt>
<wgt id='morphing_basis_vector_1'> +1.7263178e-04 </wgt>
<wgt id='morphing_basis_vector_2'> +1.2310187e-04 </wgt>
<wgt id='morphing_basis_vector_3'> +1.6956092e-04 </wgt>
<wgt id='morphing_basis_vector_4'> +9.3175843e-05 </wgt>
<wgt id='morphing_basis_vector_5'> +1.6218693e-04 </wgt>
</rwgt>
</event>
<event>
 4      1 +7.8865000e-07 1.23620100e+03 7.81860800e-03 8.48705700e-02
        2 -1    0    0  501    0 +0.0000000000e+00 +0.0000000000e+00 +1.5930267808e+03 1.5930267808e+03 0.0000000000e+00 0.0000e+00 -1.0000e+00
       -2 -1    0    0    0  501 -0.0000000000e+00 -0.0000000000e+00 -2.3982533210e+02 2.3982533210e+02 0.0000000000e+00 0.0000e+00 1.0000e+00
      -13  1    1    2    0    0 -5.9343961520e+02 +1.6677550014e+02 +7.4395171869e+02 9.6615154302e+02 0.0000000000e+00 0.0000e+00 1.0000e+00
       13  1    1    2    0    0 +5.9343961520e+02 -1.6677550014e+02 +6.0924973004e+02 8.6670056991e+02 0.0000000000e+00 0.0000e+00 -1.0000e+00
<mgrwt>
<rscale>  0 0.12362009E+04</rscale>
<asrwt>0</asrwt>
<pdfrwt beam="1">  1        2 0.24508104E+00 0.12362009E+04</pdfrwt>
<pdfrwt beam="2">  1       -2 0.36896206E-01 0.12362009E+04</pdfrwt>
<totfact> 0.94176050E+01</totfact>
</mgrwt>
<rwgt>
<wgt id='morphing_basis_vector_1'> +2.8810533e-04 </wgt>
<wgt id='morphing_basis_vector_2'> +2.1545877e-04 </wgt>
<wgt id='morphing_basis_vector_3'> +2.9221448e-04 </wgt>
<wgt id='morphing_basis_vector_4'> +1.5795591e-04 </wgt>
<wgt id='morphing_basis_vector_5'> +2.8498623e-04 </wgt>
</rwgt>
</event>
<event>
 4      1 +7.8865000e-07 1.12577800e+03 7.81860800e-03 8.57303500e-02
        2 -1    0    0  501    0 +0.0000000000e+00 +0.0000000000e+00 +2.9422711643e+02 2.9422711643e+02 0.0000000000e+00 0.0000e+00 1.0000e+00
       -2 -1    0    0    0  501 -0.0000000000e+00 -0.0000000000e+00 -1.0768683436e+03 1.0768683436e+03 0.0000000000e+00 0.0000e+00 -1.0000e+00
      -13  1    1    2    0    0 +2.1394437666e+02 +4.9064475137e+02 -6.0345864396e+02 8.0663920269e+02 0.0000000000e+00 0.0000e+00 -1.0000e+00
       13  1    1    2    0    0 -2.1394437666e+02 -4.9064475137e+02 -1.7918258326e+02 5.6445625738e+02 0.0000000000e+00 0.0000e+00 1.0000e+00
<mgrwt>
<rscale>  0 0.11257777E+04</rscale>
<asrwt>0</asrwt>
<pdfrwt beam="1">  1        2 0.45265710E-01 0.11257777E+04</pdfrwt>
<pdfrwt beam="2">  1       -2 0.16567205E+00 0.11257777E+04</pdfrwt>
<totfact> 0.29180094E+01</totfact>
</mgrwt>
<rwgt>
<wgt id='morphing_basis_vector_1'> +1.9536729e-04 </wgt>
<wgt id='morphing_basis_vector_2'> +1.2905119e-04 </wgt>
<wgt id='morphing_basis_vector_3'> +1.9342357e-04 </wgt>
<wgt id='morphing_basis_vector_4'> +1.1801611e-04 </wgt>
<wgt id='morphing_basis_vector_5'> +1.9244727e-04 </wgt>
</rwgt>
</event>
<event>
 4      1 +7.8865000e-07 1.09720800e+03 7.81860800e-03 8.59697200e-02
        2 -1    0    0  501    0 +0.0000000000e+00 +0.0000000000e+00 +2.3767030222e+03 2.3767030222e+03 0.0000000000e+00 0.0000e+00 -1.0000e+00
       -2 -1    0    0    0  501 -0.0000000000e+00 -0.0000000000e+00 -1.2663195897e+02 1.2663195897e+02 0.0000000000e+00 0.0000e+00 1.0000e+00
      -13  1    1    2    0    0 +4.9366419565e+02 +2.0276375750e+01 +5.8103509421e+02 7.6270390728e+02 0.0000000000e+00 0.0000e+00 1.0000e+00
       13  1    1    2    0    0 -4.9366419565e+02 -2.0276375750e+01 +1.6690359690e+03 1.7406310739e+03 0.0000000000e+00 0.0000e+00 -1.0000e+00
<mgrwt>
<rscale>  0 0.10972084E+04</rscale>
<asrwt>0</asrwt>
<pdfrwt beam="1">  1        2 0.36564658E+00 0.10972084E+04</pdfrwt>
<pdfrwt beam="2">  1       -2 0.19481842E-01 0.10972084E+04</pdfrwt>
<totfact> 0.10533587E+02</totfact>
</mgrwt>
<rwgt>
<wgt id='morphing_basis_vector_1'> +1.7659433e-04 </wgt>
<wgt id='morphing_basis_vector_2'> +1.1435897e-04 </wgt>
<wgt id='morphing_basis_vector_3'> +1.7378209e-04 </wgt>
<wgt id='morphing_basis_vector_4'> +1.0713607e-04 </wgt>
<wgt id='morphing_basis_vector_5'> +1.7251641e-04 </wgt>
</rwgt>
</event>
<event>
 4      1 +7.8865000e-07 1.13932100e+03 7.81860800e-03 8.56194200e-02
        2 -1    0    0  501    0 +0.0000000000e+00 +0.0000000000e+00 +6.5391695941e+02 6.5391695941e+02 0.0000000000e+00 0.0000e+00 -1.0000e+00
       -2 -1    0    0    0  501 -0.0000000000e+00 -0.0000000000e+00 -4.9626030750e+02 4.9626030750e+02 0.0000000000e+00 0.0000e+00 1.0000e+00
      -13  1    1    2    0    0 +1.5738549141e+02 +3.8416271789e+02 -3.1496794159e+02 5.2111034432e+02 0.0000000000e+00 0.0000e+00 1.0000e+00
       13  1    1    2    0    0 -1.5738549141e+02 -3.8416271789e+02 +4.7262459350e+02 6.2906692260e+02 0.0000000000e+00 0.0000e+00 -1.0000e+00
<mgrwt>
<rscale>  0 0.11393209E+04</rscale>
<asrwt>0</asrwt>
<pdfrwt beam="1">  1        2 0.10060261E+00 0.11393209E+04</pdfrwt>
<pdfrwt beam="2">  1       -2 0.76347740E-01 0.11393209E+04</pdfrwt>
<totfact> 0.84765489E+01</totfact>
</mgrwt>
<rwgt>
<wgt id='morphing_basis_vector_1'> +2.0245267e-04 </wgt>
<wgt id='morphing_basis_vector_2'> +1.2946423e-04 </wgt>
<wgt id='morphing_basis_vector_3'> +2.0079685e-04 </wgt>
<wgt id='morphing_basis_vector_4'> +1.2733052e-04 </wgt>
<wgt id='morphing_basis_vector_5'> +2.0271836e-04 </wgt>
</rwgt>
</event>
<event>
 4      1 +7.8865000e-07 1.19992700e+03 7.81860800e-03 8.51422100e-02
        2 -1    0    0  501    0 +0.0000000000e+00 +0.0000000000e+00 +1.7307421111e+03 1.7307421111e+03 0.0000000000e+00 0.0000e+00 1.0000e+00
       -2 -1    0    0    0  501 -0.0000000000e+00 -0.0000000000e+00 -2.0797807579e+02 2.0797807579e+02 0.0000000000e+00 0.0000e+00 -1.0000e+00
      -13  1    1    2    0    0 +3.2791185322e+02 -2.6177283320e+02 +6.8503334850e+01 4.2513986707e+02 0.0000000000e+00 0.0000e+00 -1.0000e+00
       13  1    1    2    0    0 -3.2791185322e+02 +2.6177283320e+02 +1.4542607005e+03 1.5135803199e+03 0.0000000000e+00 0.0000e+00 1.0000e+00
<mgrwt>
<rscale>  0 0.11999274E+04</rscale>
<asrwt>0</asrwt>
<pdfrwt beam="1">  1        2 0.26626801E+00 0.11999274E+04</pdfrwt>
<pdfrwt beam="2">  1       -2 0.31996628E-01 0.11999274E+04</pdfrwt>
<totfact> 0.10255673E+02</totfact>
</mgrwt>
<rwgt>
<wgt id='morphing_basis_vector_1'> +2.4609822e-04 </wgt>
<wgt id='morphing_basis_vector_2'> +1.5815963e-04 </wgt>
<wgt id='morphing_basis_vector_3'> +2.4661035e-04 </wgt>
<wgt id='morphing_basis_vector_4'> +1.5867167e-04 </wgt>
<wgt id='morphing_basis_vector_5'> +2.5262130e-04 </wgt>
</rwgt>
</event>
<event>
 4      1 +7.8865000e-07 1.12514800e+03 7.81860800e-03 8.57355400e-02
        2 -1    0    0  501    0 +0.0000000000e+00 +0.0000000000e+00 +1.1857899749e+03 1.1857899749e+03 0.0000000000e+00 0.0000e+00 1.0000e+00
       -2 -1    0    0    0  501 -0.0000000000e+00 -0.0000000000e+00 -2.6690194382e+02 2.6690194382e+02 0.0000000000e+00 0.0000e+00 -1.0000e+00
      -13  1    1    2    0    0 -3.4035447245e+02 -1.4597539057e+02 +1.0062105810e+03 1.0721985426e+03 0.0000000000e+00 0.0000e+00 1.0000e+00
       13  1    1    2    0    0 +3.4035447245e+02 +1.4597539057e+02 -8.7322549851e+01 3.8049337613e+02 0.0000000000e+00 0.0000e+00 -1.0000e+00
<mgrwt>
<rscale>  0 0.11251483E+04</rscale>
<asrwt>0</asrwt>
<pdfrwt beam="1">  1        2 0.18242922E+00 0.11251483E+04</pdfrwt>
<pdfrwt beam="2">  1       -2 0.41061838E-01 0.11251483E+04</pdfrwt>
<totfact> 0.13239808E+02</totfact>
</mgrwt>
<rwgt>
<wgt id='morphing_basis_vector_1'> +2.5279150e-04 </wgt>
<wgt id='morphing_basis_vector_2'> +3.0296260e-04 </wgt>
<wgt id='morphing_basis_vector_3'> +2.5468523e-04 </wgt>
<wgt id='morphing_basis_vector_4'> +2.1684442e-05 </wgt>
<wgt id='morphing_basis_vector_5'> +1.8571613e-04 </wgt>
</rwgt>
</event>
<event>
 4      1 +7.8865000e-07 1.12520500e+03 7.81860800e-03 8.57350700e-02
        2 -1    0    0  501    0 +0.0000000000e+00 +0.0000000000e+00 +3.2324320008e+02 3.2324320008e+02 0.0000000000e+00 0.0000e+00 -1.0000e+00
       -2 -1    0    0    0  501 -0.0000000000e+00 -0.0000000000e+00 -9.7920581475e+02 9.7920581475e+02 0.0000000000e+00 0.0000e+00 1.0000e+00
      -13  1    1    2    0    0 +3.0491167994e+02 -8.9451271451e+01 -8.6538668711e+02 9.2188219462e+02 0.0000000000e+00 0.0000e+00 1.0000e+00
       13  1    1    2    0    0 -3.0491167994e+02 +8.9451271451e+01 +2.0942407244e+02 3.8056682021e+02 0.0000000000e+00 0.0000e+00 -1.0000e+00
<mgrwt>
<rscale>  0 0.11252051E+04</rscale>
<asrwt>0</asrwt>
<pdfrwt beam="1">  1        2 0.49729723E-01 0.11252051E+04</pdfrwt>
<pdfrwt beam="2">  1       -2 0.15064705E+00 0.11252051E+04</pdfrwt>
<totfact> 0.34698954E+01</totfact>
</mgrwt>
<rwgt>
<wgt id='morphing_basis_vector_1'> +1.9298786e-04 </wgt>
<wgt id='morphing_basis_vector_2'> +1.2275388e-04 </wgt>
<wgt id='morphing_basis_vector_3'> +1.9089226e-04 </wgt>
<wgt id='morphing_basis_vector_4'> +1.2109380e-04 </wgt>
<wgt id='morphing_basis_vector_5'> +1.9224771e-04 </wgt>
</rwgt>
</event>
<event>
 4      1 +7.8865000e-07 1.19483000e+03 7.81860800e-03 8.51812000e-02
        2 -1    0    0  501    0 +0.0000000000e+00 +0.0000000000e+00 +1.5664154318e+03 1.5664154318e+03 0.0000000000e+00 0.0000e+00 -1.0000e+00
       -2 -1    0    0    0  501 -0.0000000000e+00 -0.0000000000e+00 -2.2784787386e+02 2.2784787386e+02 0.0000000000e+00 0.0000e+00 1.0000e+00
      -13  1    1    2    0    0 -1.4734647429e+02 +5.5070151456e+02 +4.0098395372e+02 6.9697293546e+02 0.0000000000e+00 0.0000e+00 1.0000e+00
       13  1    1    2    0    0 +1.4734647429e+02 -5.5070151456e+02 +9.3758360424e+02 1.0972903702e+03 0.0000000000e+00 0.0000e+00 -1.0000e+00
<mgrwt>
<rscale>  0 0.11948296E+04</rscale>
<asrwt>0</asrwt>
<pdfrwt beam="1">  1        2 0.24098698E+00 0.11948296E+04</pdfrwt>
<pdfrwt beam="2">  1       -2 0.35053520E-01 0.11948296E+04</pdfrwt>
<totfact> 0.10734649E+02</totfact>
</mgrwt>
<rwgt>
<wgt id='morphing_basis_vector_1'> +2.4463009e-04 </wgt>
<wgt id='morphing_basis_vector_2'> +1.6295898e-04 </wgt>
<wgt id='morphing_basis_vector_3'> +2.4525066e-04 </wgt>
<wgt id='morphing_basis_vector_4'> +1.5162904e-04 </wgt>
<wgt id='morphing_basis_vector_5'> +2.4782362e-04 </wgt>
</rwgt>
</event>
<event>
 4      1 +7.8865000e-07 1.09437200e+03 7.81860800e-03 8.59939000e-02
        2 -1    0    0  501    0 +0.0000000000e+00 +0.0000000000e+00 +5.3628005139e+02 5.3628005139e+02 0.0000000000e+00 0.0000e+00 -1.0000e+00
       -2 -1    0    0    0  501 -0.0000000000e+00 -0.0000000000e+00 -5.5831358371e+02 5.5831358371e+02 0.0000000000e+00 0.0000e+00 1.0000e+00
      -13  1    1    2    0    0 +3.6795994058e+02 +2.4453983564e+02 -3.3391060927e+02 5.5379648254e+02 0.0000000000e+00 0.0000e+00 1.0000e+00
       13  1    1    2    0    0 -3.6795994058e+02 -2.4453983564e+02 +3.1187707696e+02 5.4079715256e+02 0.0000000000e+00 0.0000e+00 -1.0000e+00
<mgrwt>
<rscale>  0 0.10943719E+04</rscale>
<asrwt>0</asrwt>
<pdfrwt beam="1">  1        2 0.82504624E-01 0.10943719E+04</pdfrwt>
<pdfrwt beam="2">  1       -2 0.85894397E-01 0.10943719E+04</pdfrwt>
<totfact> 0.82202501E+01</totfact>
</mgrwt>
<rwgt>
<wgt id='morphing_basis_vector_1'> +1.7429122e-04 </wgt>
<wgt id='morphing_basis_vector_2'> +1.1140931e-04 </wgt>
<wgt id='morphing_basis_vector_3'> +1.7138309e-04 </wgt>
<wgt id='morphing_basis_vector_4'> +1.0694229e-04 </wgt>
<wgt id='morphing_basis_vector_5'> +1.7067792e-04 </wgt>
</rwgt>
</event>
<event>
 4      1 +7.8865000e-07 1.08093400e+03 7.81860800e-03 8.61094600e-02
        2 -1    0    0  501    0 +0.0000000000e+00 +0.0000000000e+00 +1.8093837674e+03 1.8093837674e+03 0.0000000000e+00 0.0000e+00 -1.0000e+00
       -2 -1    0    0    0  501 -0.0000000000e+00 -0.0000000000e+00 -1.6143879910e+02 1.6143879910e+02 0.0000000000e+00 0.0000e+00 1.0000e+00
      -13  1    1    2    0    0 -5.3135989849e+02 +3.3282851193e+01 +6.5436385054e+02 8.4358943734e+02 0.0000000000e+00 0.0000e+00 1.0000e+00
       13  1    1    2    0    0 +5.3135989849e+02 -3.3282851193e+01 +9.9358111777e+02 1.1272331292e+03 0.0000000000e+00 0.0000e+00 -1.0000e+00
<mgrwt>
<rscale>  0 0.10809343E+04</rscale>
<asrwt>0</asrwt>
<pdfrwt beam="1">  1        2 0.27836672E+00 0.10809343E+04</pdfrwt>
<pdfrwt beam="2">  1       -2 0.24836740E-01 0.10809343E+04</pdfrwt>
<totfact> 0.14600712E+02</totfact>
</mgrwt>
<rwgt>
<wgt id='morphing_basis_vector_1'> +1.6911246e-04 </wgt>
<wgt id='morphing_basis_vector_2'> +1.1432657e-04 </wgt>
<wgt id='morphing_basis_vector_3'> +1.6593957e-04 </wgt>
<wgt id='morphing_basis_vector_4'> +9.7082750e-05 </wgt>
<wgt id='morphing_basis_vector_5'> +1.6159714e-04 </wgt>
</rwgt>
</event>
<event>
 4      1 +7.8865000e-07 1.23987200e+03 7.81860800e-03 8.48436300e-02
        2 -1    0    0  501    0 +0.0000000000e+00 +0.0000000000e+00 +1.3376361369e+03 1.3376361369e+03 0.0000000000e+00 0.0000e+00 -1.0000e+00
       -2 -1    0    0    0  501 -0.0000000000e+00 -0.0000000000e+00 -2.8731329602e+02 2.8731329602e+02 0.0000000000e+00 0.0000e+00 1.0000e+00
      -13  1    1    2    0    0 -3.3174593358e+01 +2.7411468533e+02 -2.0227596681e+02 3.4227909826e+02 0.0000000000e+00 0.0000e+00 1.0000e+00
       13  1    1    2    0    0 +3.3174593358e+01 -2.7411468533e+02 +1.2525988077e+03 1.2826703346e+03 0.0000000000e+00 0.0000e+00 -1.0000e+00
<mgrwt>
<rscale>  0 0.12398720E+04</rscale>
<asrwt>0</asrwt>
<pdfrwt beam="1">  1        2 0.20579017E+00 0.12398720E+04</pdfrwt>
<pdfrwt beam="2">  1       -2 0.44202046E-01 0.12398720E+04</pdfrwt>
<totfact> 0.93360239E+01</totfact>
</mgrwt>
<rwgt>
<wgt id='morphing_basis_vector_1'> +2.7834371e-04 </wgt>
<wgt id='morphing_basis_vector_2'> +1.7888084e-04 </wgt>
<wgt id='morphing_basis_vector_3'> +2.8057475e-04 </wgt>
<wgt id='morphing_basis_vector_4'> +1.8261356e-04 </wgt>
<wgt id='morphing_basis_vector_5'> +2.9013420e-04 </wgt>
</rwgt>
</event>
<event>
 4      1 +7.8865000e-07 1.23910000e+03 7.81860800e-03 8.48492800e-02
        2 -1    0    0  501    0 +0.0000000000e+00 +0.0000000000e+00 +4.6126495912e+03 4.6126495912e+03 0.0000000000e+00 0.0000e+00 -1.0000e+00
       -2 -1    0    0    0  501 -0.0000000000e+00 -0.0000000000e+00 -8.3215163161e+01 8.3215163161e+01 0.0000000000e+00 0.0000e+00 1.0000e+00
      -13  1    1    2    0    0 -3.5952935018e+02 -4.9882725924e+02 +1.9772861768e+03 2.0706884394e+03 0.0000000000e+00 0.0000e+00 1.0000e+00
       13  1    1    2    0    0 +3.5952935018e+02 +4.9882725924e+02 +2.5521482512e+03 2.6251763149e+03 0.0000000000e+00 0.0000e+00 -1.0000e+00
<mgrwt>
<rscale>  0 0.12391003E+04</rscale>
<asrwt>0</asrwt>
<pdfrwt beam="1">  1        2 0.70963820E+00 0.12391003E+04</pdfrwt>
<pdfrwt beam="2">  1       -2 0.12802336E-01 0.12391003E+04</pdfrwt>
<totfact> 0.42539529E+00</totfact>
</mgrwt>
<rwgt>
<wgt id='morphing_basis_vector_1'> +2.8402723e-04 </wgt>
<wgt id='morphing_basis_vector_2'> +1.9746956e-04 </wgt>
<wgt id='morphing_basis_vector_3'> +2.8724503e-04 </wgt>
<wgt id='morphing_basis_vector_4'> +1.7109758e-04 </wgt>
<wgt id='morphing_basis_vector_5'> +2.8861244e-04 </wgt>
</rwgt>
</event>
<event>
 4      1 +7.8865000e-07 1.17149300e+03 7.81860800e-03 8.53623100e-02
        2 -1    0    0  501    0 +0.0000000000e+00 +0.0000000000e+00 +6.8240682453e+02 6.8240682453e+02 0.0000000000e+00 0.0000e+00 -1.0000e+00
       -2 -1    0    0    0  501 -0.0000000000e+00 -0.0000000000e+00 -5.0277776448e+02 5.0277776448e+02 0.0000000000e+00 0.0000e+00 1.0000e+00
      -13  1    1    2    0    0 +1.8935810858e+02 +5.1541839964e+02 -1.1649615951e+02 5.6132341404e+02 0.0000000000e+00 0.0000e+00 1.0000e+00
       13  1    1    2    0    0 -1.8935810858e+02 -5.1541839964e+02 +2.9612521956e+02 6.2386117497e+02 0.0000000000e+00 0.0000e+00 -1.0000e+00
<mgrwt>
<rscale>  0 0.11714930E+04</rscale>
<asrwt>0</asrwt>
<pdfrwt beam="1">  1        2 0.10498567E+00 0.11714930E+04</pdfrwt>
<pdfrwt beam="2">  1       -2 0.77350425E-01 0.11714930E+04</pdfrwt>
<totfact> 0.78011670E+01</totfact>
</mgrwt>
<rwgt>
<wgt id='morphing_basis_vector_1'> +2.2657729e-04 </wgt>
<wgt id='morphing_basis_vector_2'> +1.4946921e-04 </wgt>
<wgt id='morphing_basis_vector_3'> +2.2619248e-04 </wgt>
<wgt id='morphing_basis_vector_4'> +1.4033537e-04 </wgt>
<wgt id='morphing_basis_vector_5'> +2.2800181e-04 </wgt>
</rwgt>
</event>
<event>
 4      1 +7.8865000e-07 1.25487100e+03 7.81860800e-03 8.47345500e-02
        2 -1    0    0  501    0 +0.0000000000e+00 +0.0000000000e+00 +9.6678161168e+02 9.6678161168e+02 0.0000000000e+00 0.0000e+00 1.0000e+00
       -2 -1    0    0    0  501 -0.0000000000e+00 -0.0000000000e+00 -4.0720195565e+02 4.0720195565e+02 0.0000000000e+00 0.0000e+00 -1.0000e+00
      -13  1    1    2    0    0 -4.6304272878e+02 -2.3386687840e+02 +6.6624090454e+02 8.4438097348e+02 0.0000000000e+00 0.0000e+00 1.0000e+00
       13  1    1    2    0    0 +4.6304272878e+02 +2.3386687840e+02 -1.0666124851e+02 5.2960259386e+02 0.0000000000e+00 0.0000e+00 -1.0000e+00
<mgrwt>
<rscale>  0 0.12548711E+04</rscale>
<asrwt>0</asrwt>
<pdfrwt beam="1">  1        2 0.14873563E+00 0.12548711E+04</pdfrwt>
<pdfrwt beam="2">  1       -2 0.62646455E-01 0.12548711E+04</pdfrwt>
<totfact> 0.77450046E+01</totfact>
</mgrwt>
<rwgt>
<wgt id='morphing_basis_vector_1'> +3.5367464e-04 </wgt>
<wgt id='morphing_basis_vector_2'> +3.7436744e-04 </wgt>
<wgt id='morphing_basis_vector_3'> +3.6739975e-04 </wgt>
<wgt id='morphing_basis_vector_4'> +8.2983528e-05 </wgt>
<wgt id='morphing_basis_vector_5'> +2.9764818e-04 </wgt>
</rwgt>
</event>
<event>
 4      1 +7.8865000e-07 1.19481900e+03 7.81860800e-03 8.51812800e-02
        2 -1    0    0  501    0 +0.0000000000e+00 +0.0000000000e+00 +1.3998512657e+03 1.3998512657e+03 0.0000000000e+00 0.0000e+00 1.0000e+00
       -2 -1    0    0    0  501 -0.0000000000e+00 -0.0000000000e+00 -2.5495426030e+02 2.5495426030e+02 0.0000000000e+00 0.0000e+00 -1.0000e+00
      -13  1    1    2    0    0 +3.4194026175e+02 +4.6812696596e+02 +3.7254940365e+02 6.8910017924e+02 0.0000000000e+00 0.0000e+00 -1.0000e+00
       13  1    1    2    0    0 -3.4194026175e+02 -4.6812696596e+02 +7.7234760178e+02 9.6570534680e+02 0.0000000000e+00 0.0000e+00 1.0000e+00
<mgrwt>
<rscale>  0 0.11948189E+04</rscale>
<asrwt>0</asrwt>
<pdfrwt beam="1">  1        2 0.21536173E+00 0.11948189E+04</pdfrwt>
<pdfrwt beam="2">  1       -2 0.39223733E-01 0.11948189E+04</pdfrwt>
<totfact> 0.10818208E+02</totfact>
</mgrwt>
<rwgt>
<wgt id='morphing_basis_vector_1'> +2.4536052e-04 </wgt>
<wgt id='morphing_basis_vector_2'> +1.6517268e-04 </wgt>
<wgt id='morphing_basis_vector_3'> +2.4607473e-04 </wgt>
<wgt id='morphing_basis_vector_4'> +1.5035854e-04 </wgt>
<wgt id='morphing_basis_vector_5'> +2.4772866e-04 </wgt>
</rwgt>
</event>
<event>
 4      1 +7.8865000e-07 1.19839000e+03 7.81860800e-03 8.51539500e-02
        2 -1    0    0  501    0 +0.0000000000e+00 +0.0000000000e+00 +2.7169336193e+03 2.7169336193e+03 0.0000000000e+00 0.0000e+00 -1.0000e+00
       -2 -1    0    0    0  501 -0.0000000000e+00 -0.0000000000e+00 -1.3214695484e+02 1.3214695484e+02 0.0000000000e+00 0.0000e+00 1.0000e+00
      -13  1    1    2    0    0 +5.0000071932e+02 +2.5067098536e+02 +7.8139734814e+02 9.6094665716e+02 0.0000000000e+00 0.0000e+00 1.0000e+00
       13  1    1    2    0    0 -5.0000071932e+02 -2.5067098536e+02 +1.8033893164e+03 1.8881339170e+03 0.0000000000e+00 0.0000e+00 -1.0000e+00
<mgrwt>
<rscale>  0 0.11983898E+04</rscale>
<asrwt>0</asrwt>
<pdfrwt beam="1">  1        2 0.41798975E+00 0.11983898E+04</pdfrwt>
<pdfrwt beam="2">  1       -2 0.20330303E-01 0.11983898E+04</pdfrwt>
<totfact> 0.60961688E+01</totfact>
</mgrwt>
<rwgt>
<wgt id='morphing_basis_vector_1'> +2.4676566e-04 </wgt>
<wgt id='morphing_basis_vector_2'> +1.6295410e-04 </wgt>
<wgt id='morphing_basis_vector_3'> +2.4745744e-04 </wgt>
<wgt id='morphing_basis_vector_4'> +1.5462935e-04 </wgt>
<wgt id='morphing_basis_vector_5'> +2.5103805e-04 </wgt>
</rwgt>
</event>
<event>
 4      1 +7.8865000e-07 1.07896300e+03 7.81860800e-03 8.61265600e-02
        2 -1    0    0  501    0 +0.0000000000e+00 +0.0000000000e+00 +2.2369260000e+03 2.2369260000e+03 0.0000000000e+00 0.0000e+00 1.0000e+00
       -2 -1    0    0    0  501 -0.0000000000e+00 -0.0000000000e+00 -1.3010718492e+02 1.3010718492e+02 0.0000000000e+00 0.0000e+00 -1.0000e+00
      -13  1    1    2    0    0 -1.0627353939e+01 -4.8214735080e+02 +5.2297519495e+02 7.1139444971e+02 0.0000000000e+00 0.0000e+00 -1.0000e+00
       13  1    1    2    0    0 +1.0627353939e+01 +4.8214735080e+02 +1.5838436201e+03 1.6556387352e+03 0.0000000000e+00 0.0000e+00 1.0000e+00
<mgrwt>
<rscale>  0 0.10789627E+04</rscale>
<asrwt>0</asrwt>
<pdfrwt beam="1">  1        2 0.34414243E+00 0.10789627E+04</pdfrwt>
<pdfrwt beam="2">  1       -2 0.20016492E-01 0.10789627E+04</pdfrwt>
<totfact> 0.12131631E+02</totfact>
</mgrwt>
<rwgt>
<wgt id='morphing_basis_vector_1'> +1.6579568e-04 </wgt>
<wgt id='morphing_basis_vector_2'> +1.0698536e-04 </wgt>
<wgt id='morphing_basis_vector_3'> +1.6252599e-04 </wgt>
<wgt id='morphing_basis_vector_4'> +9.9844449e-05 </wgt>
<wgt id='morphing_basis_vector_5'> +1.6055971e-04 </wgt>
</rwgt>
</event>
<event>
 4      1 +7.8865000e-07 1.08339400e+03 7.81860800e-03 8.60881800e-02
        2 -1    0    0  501    0 +0.0000000000e+00 +0.0000000000e+00 +3.8708280722e+02 3.8708280722e+02 0.0000000000e+00 0.0000e+00 -1.0000e+00
       -2 -1    0    0    0  501 -0.0000000000e+00 -0.0000000000e+00 -7.5806896000e+02 7.5806896000e+02 0.0000000000e+00 0.0000e+00 1.0000e+00
      -13  1    1    2    0    0 -2.0030645709e+02 -2.7802815736e+02 -6.2894779909e+02 7.1623855455e+02 0.0000000000e+00 0.0000e+00 1.0000e+00
       13  1    1    2    0    0 +2.0030645709e+02 +2.7802815736e+02 +2.5796164631e+02 4.2891321268e+02 0.0000000000e+00 0.0000e+00 -1.0000e+00
<mgrwt>
<rscale>  0 0.10833937E+04</rscale>
<asrwt>0</asrwt>
<pdfrwt beam="1">  1        2 0.59551202E-01 0.10833937E+04</pdfrwt>
<pdfrwt beam="2">  1       -2 0.11662599E+00 0.10833937E+04</pdfrwt>
<totfact> 0.56799736E+01</totfact>
</mgrwt>
<rwgt>
<wgt id='morphing_basis_vector_1'> +1.6750920e-04 </wgt>
<wgt id='morphing_basis_vector_2'> +1.0614435e-04 </wgt>
<wgt id='morphing_basis_vector_3'> +1.6432435e-04 </wgt>
<wgt id='morphing_basis_vector_4'> +1.0298049e-04 </wgt>
<wgt id='morphing_basis_vector_5'> +1.6349476e-04 </wgt>
</rwgt>
</event>
<event>
 4      1 +7.8865000e-07 1.20032900e+03 7.81860800e-03 8.51391500e-02
        2 -1    0    0  501    0 +0.0000000000e+00 +0.0000000000e+00 +3.6244725730e+03 3.6244725730e+03 0.0000000000e+00 0.0000e+00 1.0000e+00
       -2 -1    0    0    0  501 -0.0000000000e+00 -0.0000000000e+00 -9.9379243632e+01 9.9379243632e+01 0.0000000000e+00 0.0000e+00 -1.0000e+00
      -13  1    1    2    0    0 +1.6139948482e+02 -4.5455341047e+02 +6.5465782463e+02 8.1317000930e+02 0.0000000000e+00 0.0000e+00 -1.0000e+00
       13  1    1    2    0    0 -1.6139948482e+02 +4.5455341047e+02 +2.8704355047e+03 2.9106818073e+03 0.0000000000e+00 0.0000e+00 1.0000e+00
<mgrwt>
<rscale>  0 0.12003289E+04</rscale>
<asrwt>0</asrwt>
<pdfrwt beam="1">  1        2 0.55761107E+00 0.12003289E+04</pdfrwt>
<pdfrwt beam="2">  1       -2 0.15289117E-01 0.12003289E+04</pdfrwt>
<totfact> 0.24013233E+01</totfact>
</mgrwt>
<rwgt>
<wgt id='morphing_basis_vector_1'> +2.4676862e-04 </wgt>
<wgt id='morphing_basis_vector_2'> +1.5944340e-04 </wgt>
<wgt id='morphing_basis_vector_3'> +2.4734439e-04 </wgt>
<wgt id='morphing_basis_vector_4'> +1.5828028e-04 </wgt>
<wgt id='morphing_basis_vector_5'> +2.5293749e-04 </wgt>
</rwgt>
</event>
<event>
 4      1 +7.8865000e-07 1.17343800e+03 7.81860800e-03 8.53470500e-02
        2 -1    0    0  501    0 +0.0000000000e+00 +0.0000000000e+00 +2.7760987043e+03 2.7760987043e+03 0.0000000000e+00 0.0000e+00 1.0000e+00
       -2 -1    0    0    0  501 -0.0000000000e+00 -0.0000000000e+00 -1.2400097042e+02 1.2400097042e+02 0.0000000000e+00 0.0000e+00 -1.0000e+00
      -13  1    1    2    0    0 -2.7528281557e+02 -5.0874722301e+02 +1.0834610115e+03 1.2282068754e+03 0.0000000000e+00 0.0000e+00 -1.0000e+00
       13  1    1    2    0    0 +2.7528281557e+02 +5.0874722301e+02 +1.5686367224e+03 1.6718927993e+03 0.0000000000e+00 0.0000e+00 1.0000e+00
<mgrwt>
<rscale>  0 0.11734376E+04</rscale>
<asrwt>0</asrwt>
<pdfrwt beam="1">  1        2 0.42709206E+00 0.11734376E+04</pdfrwt>
<pdfrwt beam="2">  1       -2 0.19077074E-01 0.11734376E+04</pdfrwt>
<totfact> 0.62512795E+01</totfact>
</mgrwt>
<rwgt>
<wgt id='morphing_basis_vector_1'> +2.3029518e-04 </wgt>
<wgt id='morphing_basis_vector_2'> +1.5733658e-04 </wgt>
<wgt id='morphing_basis_vector_3'> +2.3023700e-04 </wgt>
<wgt id='morphing_basis_vector_4'> +1.3742715e-04 </wgt>
<wgt id='morphing_basis_vector_5'> +2.2935113e-04 </wgt>
</rwgt>
</event>
<event>
 4      1 +7.8865000e-07 1.26186100e+03 7.81860800e-03 8.46842600e-02
        2 -1    0    0  501    0 +0.0000000000e+00 +0.0000000000e+00 +2.0334628063e+03 2.0334628063e+03 0.0000000000e+00 0.0000e+00 -1.0000e+00
       -2 -1    0    0    0  501 -0.0000000000e+00 -0.0000000000e+00 -1.9576117123e+02 1.9576117123e+02 0.0000000000e+00 0.0000e+00 1.0000e+00
      -13  1    1    2    0    0 +5.6617132087e+02 +9.8266916195e+00 +4.2727872392e+02 7.0937552562e+02 0.0000000000e+00 0.0000e+00 1.0000e+00
       13  1    1    2    0    0 -5.6617132087e+02 -9.8266916195e+00 +1.4104229112e+03 1.5198484519e+03 0.0000000000e+00 0.0000e+00 -1.0000e+00
<mgrwt>
<rscale>  0 0.12618606E+04</rscale>
<asrwt>0</asrwt>
<pdfrwt beam="1">  1        2 0.31284042E+00 0.12618606E+04</pdfrwt>
<pdfrwt beam="2">  1       -2 0.30117105E-01 0.12618606E+04</pdfrwt>
<totfact> 0.77126257E+01</totfact>
</mgrwt>
<rwgt>
<wgt id='morphing_basis_vector_1'> +2.9929993e-04 </wgt>
<wgt id='morphing_basis_vector_2'> +1.9677734e-04 </wgt>
<wgt id='morphing_basis_vector_3'> +3.0292271e-04 </wgt>
<wgt id='morphing_basis_vector_4'> +1.9357718e-04 </wgt>
<wgt id='morphing_basis_vector_5'> +3.1222589e-04 </wgt>
</rwgt>
</event>
<event>
 4      1 +7.8865000e-07 1.20899500e+03 7.81860800e-03 8.50733700e-02
        2 -1    0    0  501    0 +0.0000000000e+00 +0.0000000000e+00 +1.3292477990e+03 1.3292477990e+03 0.0000000000e+00 0.0000e+00 1.0000e+00
       -2 -1    0    0    0  501 -0.0000000000e+00 -0.0000000000e+00 -2.7490528199e+02 2.7490528199e+02 0.0000000000e+00 0.0000e+00 -1.0000e+00
      -13  1    1    2    0    0 +1.1376584091e+02 +5.9222476613e+02 +4.7175407636e+02 7.6565315172e+02 0.0000000000e+00 0.0000e+00 -1.0000e+00
       13  1    1    2    0    0 -1.1376584091e+02 -5.9222476613e+02 +5.8258844061e+02 8.3849992922e+02 0.0000000000e+00 0.0000e+00 1.0000e+00
<mgrwt>
<rscale>  0 0.12089950E+04</rscale>
<asrwt>0</asrwt>
<pdfrwt beam="1">  1        2 0.20449966E+00 0.12089950E+04</pdfrwt>
<pdfrwt beam="2">  1       -2 0.42293121E-01 0.12089950E+04</pdfrwt>
<totfact> 0.10288355E+02</totfact>
</mgrwt>
<rwgt>
<wgt id='morphing_basis_vector_1'> +2.6002110e-04 </wgt>
<wgt id='morphing_basis_vector_2'> +1.8331756e-04 </wgt>
<wgt id='morphing_basis_vector_3'> +2.6185335e-04 </wgt>
<wgt id='morphing_basis_vector_4'> +1.5206605e-04 </wgt>
<wgt id='morphing_basis_vector_5'> +2.5999820e-04 </wgt>
</rwgt>
</event>
<event>
 4      1 +7.8865000e-07 1.16065200e+03 7.81860800e-03 8.54479700e-02
        2 -1    0    0  501    0 +0.0000000000e+00 +0.0000000000e+00 +2.6484246074e+02 2.6484246074e+02 0.0000000000e+00 0.0000e+00 1.0000e+00
       -2 -1    0    0    0  501 -0.0000000000e+00 -0.0000000000e+00 -1.2716169184e+03 1.2716169184e+03 0.0000000000e+00 0.0000e+00 -1.0000e+00
      -13  1    1    2    0    0 -4.4276817447e+02 -3.7222535276e+02 -5.6523506854e+02 8.0875586691e+02 0.0000000000e+00 0.0000e+00 1.0000e+00
       13  1    1    2    0    0 +4.4276817447e+02 +3.7222535276e+02 -4.4153938910e+02 7.2770351221e+02 0.0000000000e+00 0.0000e+00 -1.0000e+00
<mgrwt>
<rscale>  0 0.11606518E+04</rscale>
<asrwt>0</asrwt>
<pdfrwt beam="1">  1        2 0.40744994E-01 0.11606518E+04</pdfrwt>
<pdfrwt beam="2">  1       -2 0.19563337E+00 0.11606518E+04</pdfrwt>
<totfact> 0.19405313E+01</totfact>
</mgrwt>
<rwgt>
<wgt id='morphing_basis_vector_1'> +2.2260878e-04 </wgt>
<wgt id='morphing_basis_vector_2'> +1.5571481e-04 </wgt>
<wgt id='morphing_basis_vector_3'> +2.2219830e-04 </wgt>
<wgt id='morphing_basis_vector_4'> +1.2844319e-04 </wgt>
<wgt id='morphing_basis_vector_5'> +2.1874458e-04 </wgt>
</rwgt>
</event>
<event>
 4      1 +7.8865000e-07 1.10438600e+03 7.81860800e-03 8.59088900e-02
        2 -1    0    0  501    0 +0.0000000000e+00 +0.0000000000e+00 +2.6717394294e+02 2.6717394294e+02 0.0000000000e+00 0.0000e+00 -1.0000e+00
       -2 -1    0    0    0  501 -0.0000000000e+00 -0.0000000000e+00 -1.1412677936e+03 1.1412677936e+03 0.0000000000e+00 0.0000e+00 1.0000e+00
      -13  1    1    2    0    0 -8.2463665678e+01 -3.8981564011e+02 -9.2461258504e+02 1.0068092778e+03 0.0000000000e+00 0.0000e+00 1.0000e+00
       13  1    1    2    0    0 +8.2463665678e+01 +3.8981564011e+02 +5.0518734339e+01 4.0163245878e+02 0.0000000000e+00 0.0000e+00 -1.0000e+00
<mgrwt>
<rscale>  0 0.11043858E+04</rscale>
<asrwt>0</asrwt>
<pdfrwt beam="1">  1        2 0.41103683E-01 0.11043858E+04</pdfrwt>
<pdfrwt beam="2">  1       -2 0.17557966E+00 0.11043858E+04</pdfrwt>
<totfact> 0.27295037E+01</totfact>
</mgrwt>
<rwgt>
<wgt id='morphing_basis_vector_1'> +1.8010142e-04 </wgt>
<wgt id='morphing_basis_vector_2'> +1.1469350e-04 </wgt>
<wgt id='morphing_basis_vector_3'> +1.7744109e-04 </wgt>
<wgt id='morphing_basis_vector_4'> +1.1156455e-04 </wgt>
<wgt id='morphing_basis_vector_5'> +1.7748810e-04 </wgt>
</rwgt>
</event>
<event>
 4      1 +7.8865000e-07 1.08004700e+03 7.81860800e-03 8.61171500e-02
        2 -1    0    0  501    0 +0.0000000000e+00 +0.0000000000e+00 +1.1077865252e+02 1.1077865252e+02 0.0000000000e+00 0.0000e+00 -1.0000e+00
       -2 -1    0    0    0  501 -0.0000000000e+00 -0.0000000000e+00 -2.6325036685e+03 2.6325036685e+03 0.0000000000e+00 0.0000e+00 1.0000e+00
      -13  1    1    2    0    0 +1.4042159925e+02 -3.5763466353e+02 -2.2247268307e+03 2.2576603485e+03 0.0000000000e+00 0.0000e+00 1.0000e+00
       13  1    1    2    0    0 -1.4042159925e+02 +3.5763466353e+02 -2.9699818526e+02 4.8562197246e+02 0.0000000000e+00 0.0000e+00 -1.0000e+00
<mgrwt>
<rscale>  0 0.10800467E+04</rscale>
<asrwt>0</asrwt>
<pdfrwt beam="1">  1        2 0.17042869E-01 0.10800467E+04</pdfrwt>
<pdfrwt beam="2">  1       -2 0.40500058E+00 0.10800467E+04</pdfrwt>
<totfact> 0.21235384E+00</totfact>
</mgrwt>
<rwgt>
<wgt id='morphing_basis_vector_1'> +1.6567761e-04 </wgt>
<wgt id='morphing_basis_vector_2'> +1.0516496e-04 </wgt>
<wgt id='morphing_basis_vector_3'> +1.6241744e-04 </wgt>
<wgt id='morphing_basis_vector_4'> +1.0147632e-04 </wgt>
<wgt id='morphing_basis_vector_5'> +1.6132932e-04 </wgt>
</rwgt>
</event>
<event>
 4      1 +7.8865000e-07 1.11926100e+03 7.81860800e-03 8.57843000e-02
        2 -1    0    0  501    0 +0.0000000000e+00 +0.0000000000e+00 +1.1256094361e+03 1.1256094361e+03 0.0000000000e+00 0.0000e+00 1.0000e+00
       -2 -1    0    0    0  501 -0.0000000000e+00 -0.0000000000e+00 -2.7823700784e+02 2.7823700784e+02 0.0000000000e+00 0.0000e+00 -1.0000e+00
      -13  1    1    2    0    0 -4.9094144344e+02 -1.4423671037e+02 +1.3944022328e+02 5.3035017241e+02 0.0000000000e+00 0.0000e+00 -1.0000e+00
       13  1    1    2    0    0 +4.9094144344e+02 +1.4423671037e+02 +7.0793220496e+02 8.7349627151e+02 0.0000000000e+00 0.0000e+00 1.0000e+00
<mgrwt>
<rscale>  0 0.11192608E+04</rscale>
<asrwt>0</asrwt>
<pdfrwt beam="1">  1        2 0.17317068E+00 0.11192608E+04</pdfrwt>
<pdfrwt beam="2">  1       -2 0.42805694E-01 0.11192608E+04</pdfrwt>
<totfact> 0.13290607E+02</totfact>
</mgrwt>
<rwgt>
<wgt id='morphing_basis_vector_1'> +1.9044583e-04 </wgt>
<wgt id='morphing_basis_vector_2'> +1.2404623e-04 </wgt>
<wgt id='morphing_basis_vector_3'> +1.8825740e-04 </wgt>
<wgt id='morphing_basis_vector_4'> +1.1631495e-04 </wgt>
<wgt id='morphing_basis_vector_5'> +1.8781491e-04 </wgt>
</rwgt>
</event>
<event>
 4      1 +7.8865000e-07 1.09658400e+03 7.81860800e-03 8.59750400e-02
        2 -1    0    0  501    0 +0.0000000000e+00 +0.0000000000e+00 +9.4033273563e+02 9.4033273563e+02 0.0000000000e+00 0.0000e+00 1.0000e+00
       -2 -1    0    0    0  501 -0.0000000000e+00 -0.0000000000e+00 -3.1969976768e+02 3.1969976768e+02 0.0000000000e+00 0.0000e+00 -1.0000e+00
      -13  1    1    2    0    0 -2.8341775279e+02 +4.3616630819e+02 +1.1110418744e+02 5.3189360916e+02 0.0000000000e+00 0.0000e+00 -1.0000e+00
       13  1    1    2    0    0 +2.8341775279e+02 -4.3616630819e+02 +5.0952878051e+02 7.2813889415e+02 0.0000000000e+00 0.0000e+00 1.0000e+00
<mgrwt>
<rscale>  0 0.10965841E+04</rscale>
<asrwt>0</asrwt>
<pdfrwt beam="1">  1        2 0.14466657E+00 0.10965841E+04</pdfrwt>
<pdfrwt beam="2">  1       -2 0.49184580E-01 0.10965841E+04</pdfrwt>
<totfact> 0.13251586E+02</totfact>
</mgrwt>
<rwgt>
<wgt id='morphing_basis_vector_1'> +1.7698222e-04 </wgt>
<wgt id='morphing_basis_vector_2'> +1.1641035e-04 </wgt>
<wgt id='morphing_basis_vector_3'> +1.7418331e-04 </wgt>
<wgt id='morphing_basis_vector_4'> +1.0562605e-04 </wgt>
<wgt id='morphing_basis_vector_5'> +1.7201632e-04 </wgt>
</rwgt>
</event>
<event>
 4      1 +7.8865000e-07 1.08838900e+03 7.81860800e-03 8.60451400e-02
        2 -1    0    0  501    0 +0.0000000000e+00 +0.0000000000e+00 +3.0193204046e+03 3.0193204046e+03 0.0000000000e+00 0.0000e+00 1.0000e+00
       -2 -1    0    0    0  501 -0.0000000000e+00 -0.0000000000e+00 -9.8084177860e+01 9.8084177860e+01 0.0000000000e+00 0.0000e+00 -1.0000e+00
      -13  1    1    2    0    0 -2.3399822137e+02 -4.3567444156e+02 +8.1011333405e+02 9.4913170880e+02 0.0000000000e+00 0.0000e+00 1.0000e+00
       13  1    1    2    0    0 +2.3399822137e+02 +4.3567444156e+02 +2.1111228927e+03 2.1682728737e+03 0.0000000000e+00 0.0000e+00 -1.0000e+00
<mgrwt>
<rscale>  0 0.10883888E+04</rscale>
<asrwt>0</asrwt>
<pdfrwt beam="1">  1        2 0.46451076E+00 0.10883888E+04</pdfrwt>
<pdfrwt beam="2">  1       -2 0.15089876E-01 0.10883888E+04</pdfrwt>
<totfact> 0.65115480E+01</totfact>
</mgrwt>
<rwgt>
<wgt id='morphing_basis_vector_1'> +1.7143068e-04 </wgt>
<wgt id='morphing_basis_vector_2'> +1.1111454e-04 </wgt>
<wgt id='morphing_basis_vector_3'> +1.6839505e-04 </wgt>
<wgt id='morphing_basis_vector_4'> +1.0336633e-04 </wgt>
<wgt id='morphing_basis_vector_5'> +1.6664554e-04 </wgt>
</rwgt>
</event>
<event>
 4      1 +7.8865000e-07 1.11857900e+03 7.81860800e-03 8.57899700e-02
        2 -1    0    0  501    0 +0.0000000000e+00 +0.0000000000e+00 +1.7438804822e+02 1.7438804822e+02 0.0000000000e+00 0.0000e+00 1.0000e+00
       -2 -1    0    0    0  501 -0.0000000000e+00 -0.0000000000e+00 -1.7937282070e+03 1.7937282070e+03 0.0000000000e+00 0.0000e+00 -1.0000e+00
      -13  1    1    2    0    0 -5.4281629762e+02 -1.1696075912e+01 -1.0458497691e+03 1.1783836687e+03 0.0000000000e+00 0.0000e+00 -1.0000e+00
       13  1    1    2    0    0 +5.4281629762e+02 +1.1696075912e+01 -5.7349038972e+02 7.8973258655e+02 0.0000000000e+00 0.0000e+00 1.0000e+00
<mgrwt>
<rscale>  0 0.11185790E+04</rscale>
<asrwt>0</asrwt>
<pdfrwt beam="1">  1        2 0.26828929E-01 0.11185790E+04</pdfrwt>
<pdfrwt beam="2">  1       -2 0.27595820E+00 0.11185790E+04</pdfrwt>
<totfact> 0.86187831E+00</totfact>
</mgrwt>
<rwgt>
<wgt id='morphing_basis_vector_1'> +1.9140223e-04 </wgt>
<wgt id='morphing_basis_vector_2'> +1.2794562e-04 </wgt>
<wgt id='morphing_basis_vector_3'> +1.8927778e-04 </wgt>
<wgt id='morphing_basis_vector_4'> +1.1371050e-04 </wgt>
<wgt id='morphing_basis_vector_5'> +1.8717712e-04 </wgt>
</rwgt>
</event>
<event>
 4      1 +7.8865000e-07 1.24233400e+03 7.81860800e-03 8.48256100e-02
        2 -1    0    0  501    0 +0.0000000000e+00 +0.0000000000e+00 +2.2529460907e+03 2.2529460907e+03 0.0000000000e+00 0.0000e+00 -1.0000e+00
       -2 -1    0    0    0  501 -0.0000000000e+00 -0.0000000000e+00 -1.7126387786e+02 1.7126387786e+02 0.0000000000e+00 0.0000e+00 1.0000e+00
      -13  1    1    2    0    0 +7.3703804391e+01 -4.0710248001e+02 +1.3671004591e+02 4.3572275207e+02 0.0000000000e+00 0.0000e+00 1.0000e+00
       13  1    1    2    0    0 -7.3703804391e+01 +4.0710248001e+02 +1.9449721669e+03 1.9884872165e+03 0.0000000000e+00 0.0000e+00 -1.0000e+00
<mgrwt>
<rscale>  0 0.12423337E+04</rscale>
<asrwt>0</asrwt>
<pdfrwt beam="1">  1        2 0.34660707E+00 0.12423337E+04</pdfrwt>
<pdfrwt beam="2">  1       -2 0.26348290E-01 0.12423337E+04</pdfrwt>
<totfact> 0.73374607E+01</totfact>
</mgrwt>
<rwgt>
<wgt id='morphing_basis_vector_1'> +2.8065087e-04 </wgt>
<wgt id='morphing_basis_vector_2'> +1.8088059e-04 </wgt>
<wgt id='morphing_basis_vector_3'> +2.8303222e-04 </wgt>
<wgt id='morphing_basis_vector_4'> +1.8378890e-04 </wgt>
<wgt id='morphing_basis_vector_5'> +2.9254641e-04 </wgt>
</rwgt>
</event>
<event>
 4      1 +7.8865000e-07 1.23134700e+03 7.81860800e-03 8.49063500e-02
        2 -1    0    0  501    0 +0.0000000000e+00 +0.0000000000e+00 +7.0273954181e+02 7.0273954181e+02 0.0000000000e+00 0.0000e+00 -1.0000e+00
       -2 -1    0    0    0  501 -0.0000000000e+00 -0.0000000000e+00 -5.3939410067e+02 5.3939410067e+02 0.0000000000e+00 0.0000e+00 1.0000e+00
      -13  1    1    2    0    0 -2.0158158442e+02 -1.4634597181e+02 -4.8628832261e+02 5.4637771857e+02 0.0000000000e+00 0.0000e+00 1.0000e+00
       13  1    1    2    0    0 +2.0158158442e+02 +1.4634597181e+02 +6.4963376375e+02 6.9575592391e+02 0.0000000000e+00 0.0000e+00 -1.0000e+00
<mgrwt>
<rscale>  0 0.12313465E+04</rscale>
<asrwt>0</asrwt>
<pdfrwt beam="1">  1        2 0.10811378E+00 0.12313465E+04</pdfrwt>
<pdfrwt beam="2">  1       -2 0.82983708E-01 0.12313465E+04</pdfrwt>
<totfact> 0.63905192E+01</totfact>
</mgrwt>
<rwgt>
<wgt id='morphing_basis_vector_1'> +2.7113850e-04 </wgt>
<wgt id='morphing_basis_vector_2'> +1.7409385e-04 </wgt>
<wgt id='morphing_basis_vector_3'> +2.7297081e-04 </wgt>
<wgt id='morphing_basis_vector_4'> +1.7740946e-04 </wgt>
<wgt id='morphing_basis_vector_5'> +2.8181248e-04 </wgt>
</rwgt>
</event>
<event>
 4      1 +7.8865000e-07 1.23715200e+03 7.81860800e-03 8.48635800e-02
        2 -1    0    0  501    0 +0.0000000000e+00 +0.0000000000e+00 +1.2099552064e+03 1.2099552064e+03 0.0000000000e+00 0.0000e+00 1.0000e+00
       -2 -1    0    0    0  501 -0.0000000000e+00 -0.0000000000e+00 -3.1624003736e+02 3.1624003736e+02 0.0000000000e+00 0.0000e+00 -1.0000e+00
      -13  1    1    2    0    0 -1.0698891533e+02 -1.9211351129e+02 -2.6639533201e+02 3.4542828798e+02 0.0000000000e+00 0.0000e+00 -1.0000e+00
       13  1    1    2    0    0 +1.0698891533e+02 +1.9211351129e+02 +1.1601105010e+03 1.1807669558e+03 0.0000000000e+00 0.0000e+00 1.0000e+00
<mgrwt>
<rscale>  0 0.12371520E+04</rscale>
<asrwt>0</asrwt>
<pdfrwt beam="1">  1        2 0.18614695E+00 0.12371520E+04</pdfrwt>
<pdfrwt beam="2">  1       -2 0.48652314E-01 0.12371520E+04</pdfrwt>
<totfact> 0.91902934E+01</totfact>
</mgrwt>
<rwgt>
<wgt id='morphing_basis_vector_1'> +2.7601186e-04 </wgt>
<wgt id='morphing_basis_vector_2'> +1.7729070e-04 </wgt>
<wgt id='morphing_basis_vector_3'> +2.7811148e-04 </wgt>
<wgt id='morphing_basis_vector_4'> +1.8097143e-04 </wgt>
<wgt id='morphing_basis_vector_5'> +2.8746191e-04 </wgt>
</rwgt>
</event>
<event>
 4      1 +7.8865000e-07 1.26819600e+03 7.81860800e-03 8.46389700e-02
        2 -1    0    0  501    0 +0.0000000000e+00 +0.0000000000e+00 +3.2913275213e+03 3.2913275213e+03 0.0000000000e+00 0.0000e+00 -1.0000e+00
       -2 -1    0    0    0  501 -0.0000000000e+00 -0.0000000000e+00 -1.2216356091e+02 1.2216356091e+02 0.0000000000e+00 0.0000e+00 1.0000e+00
      -13  1    1    2    0    0 +3.4722182374e+02 -3.4017653820e+02 +4.8860608037e+02 6.8921620251e+02 0.0000000000e+00 0.0000e+00 1.0000e+00
       13  1    1    2    0    0 -3.4722182374e+02 +3.4017653820e+02 +2.6805578801e+03 2.7242748797e+03 0.0000000000e+00 0.0000e+00 -1.0000e+00
<mgrwt>
<rscale>  0 0.12681960E+04</rscale>
<asrwt>0</asrwt>
<pdfrwt beam="1">  1        2 0.50635801E+00 0.12681960E+04</pdfrwt>
<pdfrwt beam="2">  1       -2 0.18794397E-01 0.12681960E+04</pdfrwt>
<totfact> 0.29372487E+01</totfact>
</mgrwt>
<rwgt>
<wgt id='morphing_basis_vector_1'> +3.0383127e-04 </wgt>
<wgt id='morphing_basis_vector_2'> +1.9699010e-04 </wgt>
<wgt id='morphing_basis_vector_3'> +3.0757383e-04 </wgt>
<wgt id='morphing_basis_vector_4'> +1.9984269e-04 </wgt>
<wgt id='morphing_basis_vector_5'> +3.1902504e-04 </wgt>
</rwgt>
</event>
<event>
 4      1 +7.8865000e-07 1.10068200e+03 7.81860800e-03 8.59402200e-02
        2 -1    0    0  501    0 +0.0000000000e+00 +0.0000000000e+00 +3.9956689267e+02 3.9956689267e+02 0.0000000000e+00 0.0000e+00 -1.0000e+00
       -2 -1    0    0    0  501 -0.0000000000e+00 -0.0000000000e+00 -7.5800909742e+02 7.5800909742e+02 0.0000000000e+00 0.0000e+00 1.0000e+00
      -13  1    1    2    0    0 +3.4408128612e+02 +4.1521218467e+02 -6.3620135929e+01 5.4299227568e+02 0.0000000000e+00 0.0000e+00 1.0000e+00
       13  1    1    2    0    0 -3.4408128612e+02 -4.1521218467e+02 -2.9482206882e+02 6.1458371441e+02 0.0000000000e+00 0.0000e+00 -1.0000e+00
<mgrwt>
<rscale>  0 0.11006822E+04</rscale>
<asrwt>0</asrwt>
<pdfrwt beam="1">  1        2 0.61471830E-01 0.11006822E+04</pdfrwt>
<pdfrwt beam="2">  1       -2 0.11661678E+00 0.11006822E+04</pdfrwt>
<totfact> 0.54740101E+01</totfact>
</mgrwt>
<rwgt>
<wgt id='morphing_basis_vector_1'> +1.9040202e-04 </wgt>
<wgt id='morphing_basis_vector_2'> +1.5105407e-04 </wgt>
<wgt id='morphing_basis_vector_3'> +1.8818493e-04 </wgt>
<wgt id='morphing_basis_vector_4'> +8.9383802e-05 </wgt>
<wgt id='morphing_basis_vector_5'> +1.7363022e-04 </wgt>
</rwgt>
</event>
<event>
 4      1 +7.8865000e-07 1.19481500e+03 7.81860800e-03 8.51813000e-02
        2 -1    0    0  501    0 +0.0000000000e+00 +0.0000000000e+00 +7.9865733085e+02 7.9865733085e+02 0.0000000000e+00 0.0000e+00 1.0000e+00
       -2 -1    0    0    0  501 -0.0000000000e+00 -0.0000000000e+00 -4.4686987727e+02 4.4686987727e+02 0.0000000000e+00 0.0000e+00 -1.0000e+00
      -13  1    1    2    0    0 -2.3007792309e+02 +9.7827951562e+01 -3.8971197678e+02 4.6301358906e+02 0.0000000000e+00 0.0000e+00 -1.0000e+00
       13  1    1    2    0    0 +2.3007792309e+02 -9.7827951562e+01 +7.4149943036e+02 7.8251361906e+02 0.0000000000e+00 0.0000e+00 1.0000e+00
<mgrwt>
<rscale>  0 0.11948153E+04</rscale>
<asrwt>0</asrwt>
<pdfrwt beam="1">  1        2 0.12287036E+00 0.11948153E+04</pdfrwt>
<pdfrwt beam="2">  1       -2 0.68749212E-01 0.11948153E+04</pdfrwt>
<totfact> 0.82708374E+01</totfact>
</mgrwt>
<rwgt>
<wgt id='morphing_basis_vector_1'> +2.4191152e-04 </wgt>
<wgt id='morphing_basis_vector_2'> +1.5481683e-04 </wgt>
<wgt id='morphing_basis_vector_3'> +2.4218656e-04 </wgt>
<wgt id='morphing_basis_vector_4'> +1.5625714e-04 </wgt>
<wgt id='morphing_basis_vector_5'> +2.4812477e-04 </wgt>
</rwgt>
</event>
<event>
 4      1 +7.8865000e-07 1.07338500e+03 7.81860800e-03 8.61751400e-02
        2 -1    0    0  501    0 +0.0000000000e+00 +0.0000000000e+00 +1.8386365737e+03 1.8386365737e+03 0.0000000000e+00 0.0000e+00 -1.0000e+00
       -2 -1    0    0    0  501 -0.0000000000e+00 -0.0000000000e+00 -1.5665897032e+02 1.5665897032e+02 0.0000000000e+00 0.0000e+00 1.0000e+00
      -13  1    1    2    0    0 +5.1982509869e+02 +8.3024676524e+01 +6.4666961416e+02 8.3384220331e+02 0.0000000000e+00 0.0000e+00 1.0000e+00
       13  1    1    2    0    0 -5.1982509869e+02 -8.3024676524e+01 +1.0353079893e+03 1.1614533408e+03 0.0000000000e+00 0.0000e+00 -1.0000e+00
<mgrwt>
<rscale>  0 0.10733851E+04</rscale>
<asrwt>0</asrwt>
<pdfrwt beam="1">  1        2 0.28286715E+00 0.10733851E+04</pdfrwt>
<pdfrwt beam="2">  1       -2 0.24101381E-01 0.10733851E+04</pdfrwt>
<totfact> 0.14818867E+02</totfact>
</mgrwt>
<rwgt>
<wgt id='morphing_basis_vector_1'> +1.6448285e-04 </wgt>
<wgt id='morphing_basis_vector_2'> +1.1049373e-04 </wgt>
<wgt id='morphing_basis_vector_3'> +1.6111080e-04 </wgt>
<wgt id='morphing_basis_vector_4'> +9.4642313e-05 </wgt>
<wgt id='morphing_basis_vector_5'> +1.5683645e-04 </wgt>
</rwgt>
</event>
<event>
 4      1 +7.8865000e-07 1.08402500e+03 7.81860800e-03 8.60827200e-02
        2 -1    0    0  501    0 +0.0000000000e+00 +0.0000000000e+00 +1.7062429746e+03 1.7062429746e+03 0.0000000000e+00 0.0000e+00 -1.0000e+00
       -2 -1    0    0    0  501 -0.0000000000e+00 -0.0000000000e+00 -1.7217805381e+02 1.7217805381e+02 0.0000000000e+00 0.0000e+00 1.0000e+00
      -13  1    1    2    0    0 -4.4974822182e+01 +3.3649045791e+02 +3.4869026625e+01 3.4126882646e+02 0.0000000000e+00 0.0000e+00 1.0000e+00
       13  1    1    2    0    0 +4.4974822182e+01 -3.3649045791e+02 +1.4991958941e+03 1.5371522019e+03 0.0000000000e+00 0.0000e+00 -1.0000e+00
<mgrwt>
<rscale>  0 0.10840251E+04</rscale>
<asrwt>0</asrwt>
<pdfrwt beam="1">  1        2 0.26249891E+00 0.10840251E+04</pdfrwt>
<pdfrwt beam="2">  1       -2 0.26488933E-01 0.10840251E+04</pdfrwt>
<totfact> 0.14892977E+02</totfact>
</mgrwt>
<rwgt>
<wgt id='morphing_basis_vector_1'> +1.6786902e-04 </wgt>
<wgt id='morphing_basis_vector_2'> +1.0636771e-04 </wgt>
<wgt id='morphing_basis_vector_3'> +1.6469878e-04 </wgt>
<wgt id='morphing_basis_vector_4'> +1.0324568e-04 </wgt>
<wgt id='morphing_basis_vector_5'> +1.6390436e-04 </wgt>
</rwgt>
</event>
<event>
 4      1 +7.8865000e-07 1.08587400e+03 7.81860800e-03 8.60667800e-02
        2 -1    0    0  501    0 +0.0000000000e+00 +0.0000000000e+00 +1.1115176432e+03 1.1115176432e+03 0.0000000000e+00 0.0000e+00 -1.0000e+00
       -2 -1    0    0    0  501 -0.0000000000e+00 -0.0000000000e+00 -2.6520539665e+02 2.6520539665e+02 0.0000000000e+00 0.0000e+00 1.0000e+00
      -13  1    1    2    0    0 +2.2188433243e+02 +2.1684841761e+02 -1.4174751716e+02 3.4109859545e+02 0.0000000000e+00 0.0000e+00 1.0000e+00
       13  1    1    2    0    0 -2.2188433243e+02 -2.1684841761e+02 +9.8805976369e+02 1.0356244444e+03 0.0000000000e+00 0.0000e+00 -1.0000e+00
<mgrwt>
<rscale>  0 0.10858738E+04</rscale>
<asrwt>0</asrwt>
<pdfrwt beam="1">  1        2 0.17100271E+00 0.10858738E+04</pdfrwt>
<pdfrwt beam="2">  1       -2 0.40800831E-01 0.10858738E+04</pdfrwt>
<totfact> 0.14865554E+02</totfact>
</mgrwt>
<rwgt>
<wgt id='morphing_basis_vector_1'> +1.6890386e-04 </wgt>
<wgt id='morphing_basis_vector_2'> +1.0695717e-04 </wgt>
<wgt id='morphing_basis_vector_3'> +1.6577607e-04 </wgt>
<wgt id='morphing_basis_vector_4'> +1.0406097e-04 </wgt>
<wgt id='morphing_basis_vector_5'> +1.6511024e-04 </wgt>
</rwgt>
</event>
<event>
 4      1 +7.8865000e-07 1.09493800e+03 7.81860800e-03 8.59890700e-02
        2 -1    0    0  501    0 +0.0000000000e+00 +0.0000000000e+00 +1.5608932611e+03 1.5608932611e+03 0.0000000000e+00 0.0000e+00 1.0000e+00
       -2 -1    0    0    0  501 -0.0000000000e+00 -0.0000000000e+00 -1.9201962042e+02 1.9201962042e+02 0.0000000000e+00 0.0000e+00 -1.0000e+00
      -13  1    1    2    0    0 +4.6239910102e+02 -2.6501621102e+02 +8.8487625376e+02 1.0329823354e+03 0.0000000000e+00 0.0000e+00 1.0000e+00
       13  1    1    2    0    0 -4.6239910102e+02 +2.6501621102e+02 +4.8399738691e+02 7.1993054614e+02 0.0000000000e+00 0.0000e+00 -1.0000e+00
<mgrwt>
<rscale>  0 0.10949377E+04</rscale>
<asrwt>0</asrwt>
<pdfrwt beam="1">  1        2 0.24013742E+00 0.10949377E+04</pdfrwt>
<pdfrwt beam="2">  1       -2 0.29541481E-01 0.10949377E+04</pdfrwt>
<totfact> 0.14797694E+02</totfact>
</mgrwt>
<rwgt>
<wgt id='morphing_basis_vector_1'> +1.8797465e-04 </wgt>
<wgt id='morphing_basis_vector_2'> +1.5187643e-04 </wgt>
<wgt id='morphing_basis_vector_3'> +1.8557750e-04 </wgt>
<wgt id='morphing_basis_vector_4'> +8.5346093e-05 </wgt>
<wgt id='morphing_basis_vector_5'> +1.6965624e-04 </wgt>
</rwgt>
</event>
<event>
 4      1 +7.8865000e-07 1.21012200e+03 7.81860800e-03 8.50648600e-02
        2 -1    0    0  501    0 +0.0000000000e+00 +0.0000000000e+00 +2.8199369307e+02 2.8199369307e+02 0.0000000000e+00 0.0000e+00 1.0000e+00
       -2 -1    0    0    0  501 -0.0000000000e+00 -0.0000000000e+00 -1.2982519042e+03 1.2982519042e+03 0.0000000000e+00 0.0000e+00 -1.0000e+00
      -13  1    1    2    0    0 -2.7378593869e+02 -2.4638624074e+02 -1.1349863138e+03 1.1932555687e+03 0.0000000000e+00 0.0000e+00 -1.0000e+00
       13  1    1    2    0    0 +2.7378593869e+02 +2.4638624074e+02 +1.1872810263e+02 3.8699002856e+02 0.0000000000e+00 0.0000e+00 1.0000e+00
<mgrwt>
<rscale>  0 0.12101221E+04</rscale>
<asrwt>0</asrwt>
<pdfrwt beam="1">  1        2 0.43383645E-01 0.12101221E+04</pdfrwt>
<pdfrwt beam="2">  1       -2 0.19973106E+00 0.12101221E+04</pdfrwt>
<totfact> 0.16800296E+01</totfact>
</mgrwt>
<rwgt>
<wgt id='morphing_basis_vector_1'> +2.5396085e-04 </wgt>
<wgt id='morphing_basis_vector_2'> +1.6302341e-04 </wgt>
<wgt id='morphing_basis_vector_3'> +2.5487649e-04 </wgt>
<wgt id='morphing_basis_vector_4'> +1.6468540e-04 </wgt>
<wgt id='morphing_basis_vector_5'> +2.6184312e-04 </wgt>
</rwgt>
</event>
<event>
 4      1 +7.8865000e-07 1.17830600e+03 7.81860800e-03 8.53089800e-02
        2 -1    0    0  501    0 +0.0000000000e+00 +0.0000000000e+00 +1.5479336444e+03 1.5479336444e+03 0.0000000000e+00 0.0000e+00 -1.0000e+00
       -2 -1    0    0    0  501 -0.0000000000e+00 -0.0000000000e+00 -2.2423514917e+02 2.2423514917e+02 0.0000000000e+00 0.0000e+00 1.0000e+00
      -13  1    1    2    0    0 -4.6189531224e+02 -3.4348341292e+02 +8.5073716925e+02 1.0271717800e+03 0.0000000000e+00 0.0000e+00 1.0000e+00
       13  1    1    2    0    0 +4.6189531224e+02 +3.4348341292e+02 +4.7296132599e+02 7.4499701362e+02 0.0000000000e+00 0.0000e+00 -1.0000e+00
<mgrwt>
<rscale>  0 0.11783058E+04</rscale>
<asrwt>0</asrwt>
<pdfrwt beam="1">  1        2 0.23814363E+00 0.11783058E+04</pdfrwt>
<pdfrwt beam="2">  1       -2 0.34497716E-01 0.11783058E+04</pdfrwt>
<totfact> 0.11329604E+02</totfact>
</mgrwt>
<rwgt>
<wgt id='morphing_basis_vector_1'> +2.4682961e-04 </wgt>
<wgt id='morphing_basis_vector_2'> +1.9868341e-04 </wgt>
<wgt id='morphing_basis_vector_3'> +2.4844417e-04 </wgt>
<wgt id='morphing_basis_vector_4'> +1.1790156e-04 </wgt>
<wgt id='morphing_basis_vector_5'> +2.3194003e-04 </wgt>
</rwgt>
</event>
<event>
 4      1 +7.8865000e-07 1.12378500e+03 7.81860800e-03 8.57468000e-02
        2 -1    0    0  501    0 +0.0000000000e+00 +0.0000000000e+00 +1.9960314449e+02 1.9960314449e+02 0.0000000000e+00 0.0000e+00 1.0000e+00
       -2 -1    0    0    0  501 -0.0000000000e+00 -0.0000000000e+00 -1.5817555641e+03 1.5817555641e+03 0.0000000000e+00 0.0000e+00 -1.0000e+00
      -13  1    1    2    0    0 -2.4926767009e+02 +1.8108480114e+02 -1.4359194791e+03 1.4686016571e+03 0.0000000000e+00 0.0000e+00 -1.0000e+00
       13  1    1    2    0    0 +2.4926767009e+02 -1.8108480114e+02 +5.3767059576e+01 3.1275705148e+02 0.0000000000e+00 0.0000e+00 1.0000e+00
<mgrwt>
<rscale>  0 0.11237854E+04</rscale>
<asrwt>0</asrwt>
<pdfrwt beam="1">  1        2 0.30708175E-01 0.11237854E+04</pdfrwt>
<pdfrwt beam="2">  1       -2 0.24334702E+00 0.11237854E+04</pdfrwt>
<totfact> 0.12324801E+01</totfact>
</mgrwt>
<rwgt>
<wgt id='morphing_basis_vector_1'> +1.9206578e-04 </wgt>
<wgt id='morphing_basis_vector_2'> +1.2212608e-04 </wgt>
<wgt id='morphing_basis_vector_3'> +1.8992859e-04 </wgt>
<wgt id='morphing_basis_vector_4'> +1.2046124e-04 </wgt>
<wgt id='morphing_basis_vector_5'> +1.9121587e-04 </wgt>
</rwgt>
</event>
<event>
 4      1 +7.8865000e-07 1.20185300e+03 7.81860800e-03 8.51275300e-02
        2 -1    0    0  501    0 +0.0000000000e+00 +0.0000000000e+00 +1.9745681199e+03 1.9745681199e+03 0.0000000000e+00 0.0000e+00 -1.0000e+00
       -2 -1    0    0    0  501 -0.0000000000e+00 -0.0000000000e+00 -1.8288197310e+02 1.8288197310e+02 0.0000000000e+00 0.0000e+00 1.0000e+00
      -13  1    1    2    0    0 -5.5269098818e+02 +2.1720434454e+02 +7.3065600770e+02 9.4154301935e+02 0.0000000000e+00 0.0000e+00 1.0000e+00
       13  1    1    2    0    0 +5.5269098818e+02 -2.1720434454e+02 +1.0610301391e+03 1.2159070737e+03 0.0000000000e+00 0.0000e+00 -1.0000e+00
<mgrwt>
<rscale>  0 0.12018534E+04</rscale>
<asrwt>0</asrwt>
<pdfrwt beam="1">  1        2 0.30377970E+00 0.12018534E+04</pdfrwt>
<pdfrwt beam="2">  1       -2 0.28135690E-01 0.12018534E+04</pdfrwt>
<totfact> 0.94281208E+01</totfact>
</mgrwt>
<rwgt>
<wgt id='morphing_basis_vector_1'> +2.5236378e-04 </wgt>
<wgt id='morphing_basis_vector_2'> +1.7347150e-04 </wgt>
<wgt id='morphing_basis_vector_3'> +2.5358879e-04 </wgt>
<wgt id='morphing_basis_vector_4'> +1.5156328e-04 </wgt>
<wgt id='morphing_basis_vector_5'> +2.5378617e-04 </wgt>
</rwgt>
</event>
<event>
 4      1 +7.8865000e-07 1.27502800e+03 7.81860800e-03 8.45904500e-02
        2 -1    0    0  501    0 +0.0000000000e+00 +0.0000000000e+00 +8.7337795145e+02 8.7337795145e+02 0.0000000000e+00 0.0000e+00 1.0000e+00
       -2 -1    0    0    0  501 -0.0000000000e+00 -0.0000000000e+00 -4.6534762630e+02 4.6534762630e+02 0.0000000000e+00 0.0000e+00 -1.0000e+00
      -13  1    1    2    0    0 -4.8293999302e+02 -4.1598119569e+02 +1.9102941062e+02 6.6540486002e+02 0.0000000000e+00 0.0000e+00 -1.0000e+00
       13  1    1    2    0    0 +4.8293999302e+02 +4.1598119569e+02 +2.1700091452e+02 6.7332071773e+02 0.0000000000e+00 0.0000e+00 1.0000e+00
<mgrwt>
<rscale>  0 0.12750284E+04</rscale>
<asrwt>0</asrwt>
<pdfrwt beam="1">  1        2 0.13436584E+00 0.12750284E+04</pdfrwt>
<pdfrwt beam="2">  1       -2 0.71591942E-01 0.12750284E+04</pdfrwt>
<totfact> 0.67035294E+01</totfact>
</mgrwt>
<rwgt>
<wgt id='morphing_basis_vector_1'> +3.1995590e-04 </wgt>
<wgt id='morphing_basis_vector_2'> +2.3068269e-04 </wgt>
<wgt id='morphing_basis_vector_3'> +3.2590469e-04 </wgt>
<wgt id='morphing_basis_vector_4'> +1.8704329e-04 </wgt>
<wgt id='morphing_basis_vector_5'> +3.2510325e-04 </wgt>
</rwgt>
</event>
<event>
 4      1 +7.8865000e-07 1.09517000e+03 7.81860800e-03 8.59870900e-02
        2 -1    0    0  501    0 +0.0000000000e+00 +0.0000000000e+00 +8.8036574117e+02 8.8036574117e+02 0.0000000000e+00 0.0000e+00 -1.0000e+00
       -2 -1    0    0    0  501 -0.0000000000e+00 -0.0000000000e+00 -3.4059633421e+02 3.4059633421e+02 0.0000000000e+00 0.0000e+00 1.0000e+00
      -13  1    1    2    0    0 +4.0206714141e+02 -2.1136361802e+02 -7.1045436690e+01 4.5976082837e+02 0.0000000000e+00 0.0000e+00 1.0000e+00
       13  1    1    2    0    0 -4.0206714141e+02 +2.1136361802e+02 +6.1081484365e+02 7.6120124701e+02 0.0000000000e+00 0.0000e+00 -1.0000e+00
<mgrwt>
<rscale>  0 0.10951700E+04</rscale>
<asrwt>0</asrwt>
<pdfrwt beam="1">  1        2 0.13544088E+00 0.10951700E+04</pdfrwt>
<pdfrwt beam="2">  1       -2 0.52399436E-01 0.10951700E+04</pdfrwt>
<totfact> 0.12800436E+02</totfact>
</mgrwt>
<rwgt>
<wgt id='morphing_basis_vector_1'> +1.7486150e-04 </wgt>
<wgt id='morphing_basis_vector_2'> +1.1200777e-04 </wgt>
<wgt id='morphing_basis_vector_3'> +1.7197703e-04 </wgt>
<wgt id='morphing_basis_vector_4'> +1.0712132e-04 </wgt>
<wgt id='morphing_basis_vector_5'> +1.7120176e-04 </wgt>
</rwgt>
</event>
<event>
 4      1 +7.8865000e-07 1.26440500e+03 7.81860800e-03 8.46660400e-02
        2 -1    0    0  501    0 +0.0000000000e+00 +0.0000000000e+00 +7.4961392050e+02 7.4961392050e+02 0.0000000000e+00 0.0000e+00 -1.0000e+00
       -2 -1    0    0    0  501 -0.0000000000e+00 -0.0000000000e+00 -5.3318127431e+02 5.3318127431e+02 0.0000000000e+00 0.0000e+00 1.0000e+00
      -13  1    1    2    0    0 -3.1457407883e+01 +5.9160100039e+02 +3.3210398592e+02 6.7917182630e+02 0.0000000000e+00 0.0000e+00 1.0000e+00
       13  1    1    2    0    0 +3.1457407883e+01 -5.9160100039e+02 -1.1567133973e+02 6.0362336851e+02 0.0000000000e+00 0.0000e+00 -1.0000e+00
<mgrwt>
<rscale>  0 0.12644052E+04</rscale>
<asrwt>0</asrwt>
<pdfrwt beam="1">  1        2 0.11532522E+00 0.12644052E+04</pdfrwt>
<pdfrwt beam="2">  1       -2 0.82027888E-01 0.12644052E+04</pdfrwt>
<totfact> 0.60407721E+01</totfact>
</mgrwt>
<rwgt>
<wgt id='morphing_basis_vector_1'> +3.3500013e-04 </wgt>
<wgt id='morphing_basis_vector_2'> +2.9845478e-04 </wgt>
<wgt id='morphing_basis_vector_3'> +3.4475081e-04 </wgt>
<wgt id='morphing_basis_vector_4'> +1.3656839e-04 </wgt>
<wgt id='morphing_basis_vector_5'> +3.1080134e-04 </wgt>
</rwgt>
</event>
<event>
 4      1 +7.8865000e-07 1.17449000e+03 7.81860800e-03 8.53388000e-02
        2 -1    0    0  501    0 +0.0000000000e+00 +0.0000000000e+00 +1.6049311084e+03 1.6049311084e+03 0.0000000000e+00 0.0000e+00 -1.0000e+00
       -2 -1    0    0    0  501 -0.0000000000e+00 -0.0000000000e+00 -2.1487321588e+02 2.1487321588e+02 0.0000000000e+00 0.0000e+00 1.0000e+00
      -13  1    1    2    0    0 -5.2111627142e+02 +2.2339727676e+02 +4.5806966245e+02 7.2890076640e+02 0.0000000000e+00 0.0000e+00 1.0000e+00
       13  1    1    2    0    0 +5.2111627142e+02 -2.2339727676e+02 +9.3198823011e+02 1.0909035579e+03 0.0000000000e+00 0.0000e+00 -1.0000e+00
<mgrwt>
<rscale>  0 0.11744900E+04</rscale>
<asrwt>0</asrwt>
<pdfrwt beam="1">  1        2 0.24691247E+00 0.11744900E+04</pdfrwt>
<pdfrwt beam="2">  1       -2 0.33057419E-01 0.11744900E+04</pdfrwt>
<totfact> 0.11379353E+02</totfact>
</mgrwt>
<rwgt>
<wgt id='morphing_basis_vector_1'> +2.2971390e-04 </wgt>
<wgt id='morphing_basis_vector_2'> +1.5379022e-04 </wgt>
<wgt id='morphing_basis_vector_3'> +2.2954862e-04 </wgt>
<wgt id='morphing_basis_vector_4'> +1.4026127e-04 </wgt>
<wgt id='morphing_basis_vector_5'> +2.3038002e-04 </wgt>
</rwgt>
</event>
<event>
 4      1 +7.8865000e-07 1.16646000e+03 7.81860800e-03 8.54019500e-02
        2 -1    0    0  501    0 +0.0000000000e+00 +0.0000000000e+00 +3.7819294559e+02 3.7819294559e+02 0.0000000000e+00 0.0000e+00 1.0000e+00
       -2 -1    0    0    0  501 -0.0000000000e+00 -0.0000000000e+00 -8.9942757301e+02 8.9942757301e+02 0.0000000000e+00 0.0000e+00 -1.0000e+00
      -13  1    1    2    0    0 -4.0904514719e+02 +1.1662143399e+02 -6.9769269507e+02 8.1712519729e+02 0.0000000000e+00 0.0000e+00 -1.0000e+00
       13  1    1    2    0    0 +4.0904514719e+02 -1.1662143399e+02 +1.7645806764e+02 4.6049532130e+02 0.0000000000e+00 0.0000e+00 1.0000e+00
<mgrwt>
<rscale>  0 0.11664599E+04</rscale>
<asrwt>0</asrwt>
<pdfrwt beam="1">  1        2 0.58183531E-01 0.11664599E+04</pdfrwt>
<pdfrwt beam="2">  1       -2 0.13837347E+00 0.11664599E+04</pdfrwt>
<totfact> 0.36785086E+01</totfact>
</mgrwt>
<rwgt>
<wgt id='morphing_basis_vector_1'> +2.2122358e-04 </wgt>
<wgt id='morphing_basis_vector_2'> +1.4186827e-04 </wgt>
<wgt id='morphing_basis_vector_3'> +2.2047153e-04 </wgt>
<wgt id='morphing_basis_vector_4'> +1.4068505e-04 </wgt>
<wgt id='morphing_basis_vector_5'> +2.2406482e-04 </wgt>
</rwgt>
</event>
<event>
 4      1 +7.8865000e-07 1.09727400e+03 7.81860800e-03 8.59691600e-02
        2 -1    0    0  501    0 +0.0000000000e+00 +0.0000000000e+00 +4.6446417023e+02 4.6446417023e+02 0.0000000000e+00 0.0000e+00 -1.0000e+00
       -2 -1    0    0    0  501 -0.0000000000e+00 -0.0000000000e+00 -6.4806435801e+02 6.4806435801e+02 0.0000000000e+00 0.0000e+00 1.0000e+00
      -13  1    1    2    0    0 -3.6362702505e+02 -3.0488396395e+00 -5.0832600247e+02 6.2500338684e+02 0.0000000000e+00 0.0000e+00 1.0000e+00
       13  1    1    2    0    0 +3.6362702505e+02 +3.0488396395e+00 +3.2472581469e+02 4.8752514140e+02 0.0000000000e+00 0.0000e+00 -1.0000e+00
<mgrwt>
<rscale>  0 0.10972742E+04</rscale>
<asrwt>0</asrwt>
<pdfrwt beam="1">  1        2 0.71456026E-01 0.10972742E+04</pdfrwt>
<pdfrwt beam="2">  1       -2 0.99702210E-01 0.10972742E+04</pdfrwt>
<totfact> 0.68222004E+01</totfact>
</mgrwt>
<rwgt>
<wgt id='morphing_basis_vector_1'> +1.7570997e-04 </wgt>
<wgt id='morphing_basis_vector_2'> +1.1159940e-04 </wgt>
<wgt id='morphing_basis_vector_3'> +1.7286288e-04 </wgt>
<wgt id='morphing_basis_vector_4'> +1.0867689e-04 </wgt>
<wgt id='morphing_basis_vector_5'> +1.7265791e-04 </wgt>
</rwgt>
</event>
<event>
 4      1 +7.8865000e-07 1.14581600e+03 7.81860800e-03 8.55668000e-02
        2 -1    0    0  501    0 +0.0000000000e+00 +0.0000000000e+00 +1.6501180172e+03 1.6501180172e+03 0.0000000000e+00 0.0000e+00 1.0000e+00
       -2 -1    0    0    0  501 -0.0000000000e+00 -0.0000000000e+00 -1.9890923124e+02 1.9890923124e+02 0.0000000000e+00 0.0000e+00 -1.0000e+00
      -13  1    1    2    0    0 +4.1924132280e+02 -3.6934213535e+02 +5.2118473770e+02 7.6407488540e+02 0.0000000000e+00 0.0000e+00 -1.0000e+00
       13  1    1    2    0    0 -4.1924132280e+02 +3.6934213535e+02 +9.3002404822e+02 1.0849523630e+03 0.0000000000e+00 0.0000e+00 1.0000e+00
<mgrwt>
<rscale>  0 0.11458162E+04</rscale>
<asrwt>0</asrwt>
<pdfrwt beam="1">  1        2 0.25386430E+00 0.11458162E+04</pdfrwt>
<pdfrwt beam="2">  1       -2 0.30601421E-01 0.11458162E+04</pdfrwt>
<totfact> 0.12358050E+02</totfact>
</mgrwt>
<rwgt>
<wgt id='morphing_basis_vector_1'> +2.0975407e-04 </wgt>
<wgt id='morphing_basis_vector_2'> +1.4115586e-04 </wgt>
<wgt id='morphing_basis_vector_3'> +2.0855504e-04 </wgt>
<wgt id='morphing_basis_vector_4'> +1.2553390e-04 </wgt>
<wgt id='morphing_basis_vector_5'> +2.0736102e-04 </wgt>
</rwgt>
</event>
<event>
 4      1 +7.8865000e-07 1.23070000e+03 7.81860800e-03 8.49111300e-02
        2 -1    0    0  501    0 +0.0000000000e+00 +0.0000000000e+00 +5.2002133542e+02 5.2002133542e+02 0.0000000000e+00 0.0000e+00 1.0000e+00
       -2 -1    0    0    0  501 -0.0000000000e+00 -0.0000000000e+00 -7.2815401649e+02 7.2815401649e+02 0.0000000000e+00 0.0000e+00 -1.0000e+00
      -13  1    1    2    0    0 +4.7986732399e+01 -5.0233671419e+02 -4.6121828646e+02 6.8364260302e+02 0.0000000000e+00 0.0000e+00 -1.0000e+00
       13  1    1    2    0    0 -4.7986732399e+01 +5.0233671419e+02 +2.5308560539e+02 5.6453274888e+02 0.0000000000e+00 0.0000e+00 1.0000e+00
<mgrwt>
<rscale>  0 0.12307000E+04</rscale>
<asrwt>0</asrwt>
<pdfrwt beam="1">  1        2 0.80003283E-01 0.12307000E+04</pdfrwt>
<pdfrwt beam="2">  1       -2 0.11202369E+00 0.12307000E+04</pdfrwt>
<totfact> 0.44522761E+01</totfact>
</mgrwt>
<rwgt>
<wgt id='morphing_basis_vector_1'> +2.7137266e-04 </wgt>
<wgt id='morphing_basis_vector_2'> +1.7605961e-04 </wgt>
<wgt id='morphing_basis_vector_3'> +2.7329547e-04 </wgt>
<wgt id='morphing_basis_vector_4'> +1.7567474e-04 </wgt>
<wgt id='morphing_basis_vector_5'> +2.8109628e-04 </wgt>
</rwgt>
</event>
<event>
 4      1 +7.8865000e-07 1.15638000e+03 7.81860800e-03 8.54819900e-02
        2 -1    0    0  501    0 +0.0000000000e+00 +0.0000000000e+00 +1.5928236117e+03 1.5928236117e+03 0.0000000000e+00 0.0000e+00 -1.0000e+00
       -2 -1    0    0    0  501 -0.0000000000e+00 -0.0000000000e+00 -2.0988131651e+02 2.0988131651e+02 0.0000000000e+00 0.0000e+00 1.0000e+00
      -13  1    1    2    0    0 -2.4259538583e+02 +4.2331353889e+02 +1.1751311530e+03 1.2723914886e+03 0.0000000000e+00 0.0000e+00 -1.0000e+00
       13  1    1    2    0    0 +2.4259538583e+02 -4.2331353889e+02 +2.0781114217e+02 5.3031343962e+02 0.0000000000e+00 0.0000e+00 1.0000e+00
<mgrwt>
<rscale>  0 0.11563804E+04</rscale>
<asrwt>0</asrwt>
<pdfrwt beam="1">  1        2 0.24504978E+00 0.11563804E+04</pdfrwt>
<pdfrwt beam="2">  1       -2 0.32289434E-01 0.11563804E+04</pdfrwt>
<totfact> 0.12071424E+02</totfact>
</mgrwt>
<rwgt>
<wgt id='morphing_basis_vector_1'> +2.5659169e-04 </wgt>
<wgt id='morphing_basis_vector_2'> +2.6498478e-04 </wgt>
<wgt id='morphing_basis_vector_3'> +2.5953093e-04 </wgt>
<wgt id='morphing_basis_vector_4'> +6.4023782e-05 </wgt>
<wgt id='morphing_basis_vector_5'> +2.1119816e-04 </wgt>
</rwgt>
</event>
<event>
 4      1 +7.8865000e-07 1.12406900e+03 7.81860800e-03 8.57444600e-02
        2 -1    0    0  501    0 +0.0000000000e+00 +0.0000000000e+00 +7.6181755797e+02 7.6181755797e+02 0.0000000000e+00 0.0000e+00 -1.0000e+00
       -2 -1    0    0    0  501 -0.0000000000e+00 -0.0000000000e+00 -4.1464343393e+02 4.1464343393e+02 0.0000000000e+00 0.0000e+00 1.0000e+00
      -13  1    1    2    0    0 +5.5924558579e+02 +5.2045596933e+01 +1.9499217966e+02 5.9454715500e+02 0.0000000000e+00 0.0000e+00 1.0000e+00
       13  1    1    2    0    0 -5.5924558579e+02 -5.2045596933e+01 +1.5218194438e+02 5.8191383690e+02 0.0000000000e+00 0.0000e+00 -1.0000e+00
<mgrwt>
<rscale>  0 0.11240688E+04</rscale>
<asrwt>0</asrwt>
<pdfrwt beam="1">  1        2 0.11720270E+00 0.11240688E+04</pdfrwt>
<pdfrwt beam="2">  1       -2 0.63791298E-01 0.11240688E+04</pdfrwt>
<totfact> 0.10335672E+02</totfact>
</mgrwt>
<rwgt>
<wgt id='morphing_basis_vector_1'> +2.0006333e-04 </wgt>
<wgt id='morphing_basis_vector_2'> +1.4578641e-04 </wgt>
<wgt id='morphing_basis_vector_3'> +1.9844759e-04 </wgt>
<wgt id='morphing_basis_vector_4'> +1.0761687e-04 </wgt>
<wgt id='morphing_basis_vector_5'> +1.9057502e-04 </wgt>
</rwgt>
</event>
<event>
 4      1 +7.8865000e-07 1.11474200e+03 7.81860800e-03 8.58219300e-02
        2 -1    0    0  501    0 +0.0000000000e+00 +0.0000000000e+00 +9.2507397387e+02 9.2507397387e+02 0.0000000000e+00 0.0000e+00 1.0000e+00
       -2 -1    0    0    0  501 -0.0000000000e+00 -0.0000000000e+00 -3.3582467727e+02 3.3582467727e+02 0.0000000000e+00 0.0000e+00 -1.0000e+00
      -13  1    1    2    0    0 -4.0549850745e+02 +3.4615463636e+02 +1.1080380314e+02 5.4454527324e+02 0.0000000000e+00 0.0000e+00 -1.0000e+00
       13  1    1    2    0    0 +4.0549850745e+02 -3.4615463636e+02 +4.7844549345e+02 7.1635337790e+02 0.0000000000e+00 0.0000e+00 1.0000e+00
<mgrwt>
<rscale>  0 0.11147424E+04</rscale>
<asrwt>0</asrwt>
<pdfrwt beam="1">  1        2 0.14231907E+00 0.11147424E+04</pdfrwt>
<pdfrwt beam="2">  1       -2 0.51665335E-01 0.11147424E+04</pdfrwt>
<totfact> 0.12290257E+02</totfact>
</mgrwt>
<rwgt>
<wgt id='morphing_basis_vector_1'> +1.8843370e-04 </wgt>
<wgt id='morphing_basis_vector_2'> +1.2469891e-04 </wgt>
<wgt id='morphing_basis_vector_3'> +1.8616171e-04 </wgt>
<wgt id='morphing_basis_vector_4'> +1.1291598e-04 </wgt>
<wgt id='morphing_basis_vector_5'> +1.8450677e-04 </wgt>
</rwgt>
</event>
<event>
 4      1 +7.8865000e-07 1.21272000e+03 7.81860800e-03 8.50452700e-02
        2 -1    0    0  501    0 +0.0000000000e+00 +0.0000000000e+00 +5.6172598067e+02 5.6172598067e+02 0.0000000000e+00 0.0000e+00 -1.0000e+00
       -2 -1    0    0    0  501 -0.0000000000e+00 -0.0000000000e+00 -6.5454071496e+02 6.5454071496e+02 0.0000000000e+00 0.0000e+00 1.0000e+00
      -13  1    1    2    0    0 -4.0814804302e+02 -3.7754578848e+02 -2.8907960747e+02 6.2665195034e+02 0.0000000000e+00 0.0000e+00 1.0000e+00
       13  1    1    2    0    0 +4.0814804302e+02 +3.7754578848e+02 +1.9626487317e+02 5.8961474529e+02 0.0000000000e+00 0.0000e+00 -1.0000e+00
<mgrwt>
<rscale>  0 0.12127201E+04</rscale>
<asrwt>0</asrwt>
<pdfrwt beam="1">  1        2 0.86419382E-01 0.12127201E+04</pdfrwt>
<pdfrwt beam="2">  1       -2 0.10069857E+00 0.12127201E+04</pdfrwt>
<totfact> 0.53088470E+01</totfact>
</mgrwt>
<rwgt>
<wgt id='morphing_basis_vector_1'> +2.5774847e-04 </wgt>
<wgt id='morphing_basis_vector_2'> +1.6954615e-04 </wgt>
<wgt id='morphing_basis_vector_3'> +2.5901740e-04 </wgt>
<wgt id='morphing_basis_vector_4'> +1.6322127e-04 </wgt>
<wgt id='morphing_basis_vector_5'> +2.6402619e-04 </wgt>
</rwgt>
</event>
<event>
 4      1 +7.8865000e-07 1.07657800e+03 7.81860800e-03 8.61473000e-02
        2 -1    0    0  501    0 +0.0000000000e+00 +0.0000000000e+00 +1.5286516273e+03 1.5286516273e+03 0.0000000000e+00 0.0000e+00 1.0000e+00
       -2 -1    0    0    0  501 -0.0000000000e+00 -0.0000000000e+00 -1.8954935274e+02 1.8954935274e+02 0.0000000000e+00 0.0000e+00 -1.0000e+00
      -13  1    1    2    0    0 -1.5719942661e+02 +2.5593632358e+02 -4.3373116116e+01 3.0347370340e+02 0.0000000000e+00 0.0000e+00 -1.0000e+00
       13  1    1    2    0    0 +1.5719942661e+02 -2.5593632358e+02 +1.3824753907e+03 1.4147272767e+03 0.0000000000e+00 0.0000e+00 1.0000e+00
<mgrwt>
<rscale>  0 0.10765778E+04</rscale>
<asrwt>0</asrwt>
<pdfrwt beam="1">  1        2 0.23517717E+00 0.10765778E+04</pdfrwt>
<pdfrwt beam="2">  1       -2 0.29161440E-01 0.10765778E+04</pdfrwt>
<totfact> 0.15798595E+02</totfact>
</mgrwt>
<rwgt>
<wgt id='morphing_basis_vector_1'> +1.6355734e-04 </wgt>
<wgt id='morphing_basis_vector_2'> +1.0343805e-04 </wgt>
<wgt id='morphing_basis_vector_3'> +1.6021556e-04 </wgt>
<wgt id='morphing_basis_vector_4'> +1.0032043e-04 </wgt>
<wgt id='morphing_basis_vector_5'> +1.5913176e-04 </wgt>
</rwgt>
</event>
<event>
 4      1 +7.8865000e-07 1.07293500e+03 7.81860800e-03 8.61790700e-02
        2 -1    0    0  501    0 +0.0000000000e+00 +0.0000000000e+00 +7.1339237546e+02 7.1339237546e+02 0.0000000000e+00 0.0000e+00 -1.0000e+00
       -2 -1    0    0    0  501 -0.0000000000e+00 -0.0000000000e+00 -4.0342116294e+02 4.0342116294e+02 0.0000000000e+00 0.0000e+00 1.0000e+00
      -13  1    1    2    0    0 -5.0012763715e+02 -1.4662024448e+02 +2.8735719269e+02 5.9514645737e+02 0.0000000000e+00 0.0000e+00 1.0000e+00
       13  1    1    2    0    0 +5.0012763715e+02 +1.4662024448e+02 +2.2614019830e+01 5.2166708103e+02 0.0000000000e+00 0.0000e+00 -1.0000e+00
<mgrwt>
<rscale>  0 0.10729354E+04</rscale>
<asrwt>0</asrwt>
<pdfrwt beam="1">  1        2 0.10975267E+00 0.10729354E+04</pdfrwt>
<pdfrwt beam="2">  1       -2 0.62064794E-01 0.10729354E+04</pdfrwt>
<totfact> 0.11917637E+02</totfact>
</mgrwt>
<rwgt>
<wgt id='morphing_basis_vector_1'> +1.7458688e-04 </wgt>
<wgt id='morphing_basis_vector_2'> +1.4158714e-04 </wgt>
<wgt id='morphing_basis_vector_3'> +1.7135282e-04 </wgt>
<wgt id='morphing_basis_vector_4'> +7.7723729e-05 </wgt>
<wgt id='morphing_basis_vector_5'> +1.5549614e-04 </wgt>
</rwgt>
</event>
<event>
 4      1 +7.8865000e-07 1.09687900e+03 7.81860800e-03 8.59725200e-02
        2 -1    0    0  501    0 +0.0000000000e+00 +0.0000000000e+00 +1.5902217159e+03 1.5902217159e+03 0.0000000000e+00 0.0000e+00 -1.0000e+00
       -2 -1    0    0    0  501 -0.0000000000e+00 -0.0000000000e+00 -1.8914725628e+02 1.8914725628e+02 0.0000000000e+00 0.0000e+00 1.0000e+00
      -13  1    1    2    0    0 +3.8962934706e+02 -1.2758864981e+02 +1.0960677926e+02 4.2438607153e+02 0.0000000000e+00 0.0000e+00 1.0000e+00
       13  1    1    2    0    0 -3.8962934706e+02 +1.2758864981e+02 +1.2914676804e+03 1.3549829007e+03 0.0000000000e+00 0.0000e+00 -1.0000e+00
<mgrwt>
<rscale>  0 0.10968793E+04</rscale>
<asrwt>0</asrwt>
<pdfrwt beam="1">  1        2 0.24464949E+00 0.10968793E+04</pdfrwt>
<pdfrwt beam="2">  1       -2 0.29099579E-01 0.10968793E+04</pdfrwt>
<totfact> 0.14635439E+02</totfact>
</mgrwt>
<rwgt>
<wgt id='morphing_basis_vector_1'> +1.7561266e-04 </wgt>
<wgt id='morphing_basis_vector_2'> +1.1186394e-04 </wgt>
<wgt id='morphing_basis_vector_3'> +1.7276109e-04 </wgt>
<wgt id='morphing_basis_vector_4'> +1.0828221e-04 </wgt>
<wgt id='morphing_basis_vector_5'> +1.7237742e-04 </wgt>
</rwgt>
</event>
<event>
 4      1 +7.8865000e-07 1.12982500e+03 7.81860800e-03 8.56970300e-02
        2 -1    0    0  501    0 +0.0000000000e+00 +0.0000000000e+00 +2.0898907618e+03 2.0898907618e+03 0.0000000000e+00 0.0000e+00 -1.0000e+00
       -2 -1    0    0    0  501 -0.0000000000e+00 -0.0000000000e+00 -1.5269996007e+02 1.5269996007e+02 0.0000000000e+00 0.0000e+00 1.0000e+00
      -13  1    1    2    0    0 -5.0512487553e+02 -2.3478012066e+02 +7.8183121832e+02 9.5996505086e+02 0.0000000000e+00 0.0000e+00 1.0000e+00
       13  1    1    2    0    0 +5.0512487553e+02 +2.3478012066e+02 +1.1553595834e+03 1.2826256710e+03 0.0000000000e+00 0.0000e+00 -1.0000e+00
<mgrwt>
<rscale>  0 0.11298252E+04</rscale>
<asrwt>0</asrwt>
<pdfrwt beam="1">  1        2 0.32152164E+00 0.11298252E+04</pdfrwt>
<pdfrwt beam="2">  1       -2 0.23492303E-01 0.11298252E+04</pdfrwt>
<totfact> 0.11164270E+02</totfact>
</mgrwt>
<rwgt>
<wgt id='morphing_basis_vector_1'> +1.9968886e-04 </wgt>
<wgt id='morphing_basis_vector_2'> +1.3588611e-04 </wgt>
<wgt id='morphing_basis_vector_3'> +1.9799214e-04 </wgt>
<wgt id='morphing_basis_vector_4'> +1.1704899e-04 </wgt>
<wgt id='morphing_basis_vector_5'> +1.9523310e-04 </wgt>
</rwgt>
</event>
<event>
 4      1 +7.8865000e-07 1.17695000e+03 7.81860800e-03 8.53195600e-02
        2 -1    0    0  501    0 +0.0000000000e+00 +0.0000000000e+00 +1.3848326277e+03 1.3848326277e+03 0.0000000000e+00 0.0000e+00 -1.0000e+00
       -2 -1    0    0    0  501 -0.0000000000e+00 -0.0000000000e+00 -2.5006829657e+02 2.5006829657e+02 0.0000000000e+00 0.0000e+00 1.0000e+00
      -13  1    1    2    0    0 +4.3520761529e+01 -2.4550863299e+02 -1.7306697019e+02 3.0351395639e+02 0.0000000000e+00 0.0000e+00 1.0000e+00
       13  1    1    2    0    0 -4.3520761529e+01 +2.4550863299e+02 +1.3078313013e+03 1.3313869679e+03 0.0000000000e+00 0.0000e+00 -1.0000e+00
<mgrwt>
<rscale>  0 0.11769498E+04</rscale>
<asrwt>0</asrwt>
<pdfrwt beam="1">  1        2 0.21305117E+00 0.11769498E+04</pdfrwt>
<pdfrwt beam="2">  1       -2 0.38472046E-01 0.11769498E+04</pdfrwt>
<totfact> 0.11449850E+02</totfact>
</mgrwt>
<rwgt>
<wgt id='morphing_basis_vector_1'> +2.2852708e-04 </wgt>
<wgt id='morphing_basis_vector_2'> +1.4600107e-04 </wgt>
<wgt id='morphing_basis_vector_3'> +2.2812131e-04 </wgt>
<wgt id='morphing_basis_vector_4'> +1.4662033e-04 </wgt>
<wgt id='morphing_basis_vector_5'> +2.3277674e-04 </wgt>
</rwgt>
</event>
<event>
 4      1 +7.8865000e-07 1.27467700e+03 7.81860800e-03 8.45929300e-02
        2 -1    0    0  501    0 +0.0000000000e+00 +0.0000000000e+00 +9.4239403105e+02 9.4239403105e+02 0.0000000000e+00 0.0000e+00 -1.0000e+00
       -2 -1    0    0    0  501 -0.0000000000e+00 -0.0000000000e+00 -4.3103020128e+02 4.3103020128e+02 0.0000000000e+00 0.0000e+00 1.0000e+00
      -13  1    1    2    0    0 +5.9272113967e+02 +2.2702162719e+02 +3.1798084618e+02 7.0990773144e+02 0.0000000000e+00 0.0000e+00 1.0000e+00
       13  1    1    2    0    0 -5.9272113967e+02 -2.2702162719e+02 +1.9338298359e+02 6.6351650090e+02 0.0000000000e+00 0.0000e+00 -1.0000e+00
<mgrwt>
<rscale>  0 0.12746769E+04</rscale>
<asrwt>0</asrwt>
<pdfrwt beam="1">  1        2 0.14498370E+00 0.12746769E+04</pdfrwt>
<pdfrwt beam="2">  1       -2 0.66312339E-01 0.12746769E+04</pdfrwt>
<totfact> 0.71171432E+01</totfact>
</mgrwt>
<rwgt>
<wgt id='morphing_basis_vector_1'> +3.2462159e-04 </wgt>
<wgt id='morphing_basis_vector_2'> +2.4542433e-04 </wgt>
<wgt id='morphing_basis_vector_3'> +3.3147933e-04 </wgt>
<wgt id='morphing_basis_vector_4'> +1.7801436e-04 </wgt>
<wgt id='morphing_basis_vector_5'> +3.2411102e-04 </wgt>
</rwgt>
</event>
<event>
 4      1 +7.8865000e-07 1.15121300e+03 7.81860800e-03 8.55233500e-02
        2 -1    0    0  501    0 +0.0000000000e+00 +0.0000000000e+00 +7.5142616868e+02 7.5142616868e+02 0.0000000000e+00 0.0000e+00 1.0000e+00
       -2 -1    0    0    0  501 -0.0000000000e+00 -0.0000000000e+00 -4.4092541078e+02 4.4092541078e+02 0.0000000000e+00 0.0000e+00 -1.0000e+00
      -13  1    1    2    0    0 +2.8787262901e+02 -4.6479695097e+02 -3.1228034857e+01 5.4761487044e+02 0.0000000000e+00 0.0000e+00 -1.0000e+00
       13  1    1    2    0    0 -2.8787262901e+02 +4.6479695097e+02 +3.4172879276e+02 6.4473670903e+02 0.0000000000e+00 0.0000e+00 1.0000e+00
<mgrwt>
<rscale>  0 0.11512131E+04</rscale>
<asrwt>0</asrwt>
<pdfrwt beam="1">  1        2 0.11560403E+00 0.11512131E+04</pdfrwt>
<pdfrwt beam="2">  1       -2 0.67834679E-01 0.11512131E+04</pdfrwt>
<totfact> 0.92239055E+01</totfact>
</mgrwt>
<rwgt>
<wgt id='morphing_basis_vector_1'> +2.1246145e-04 </wgt>
<wgt id='morphing_basis_vector_2'> +1.4063135e-04 </wgt>
<wgt id='morphing_basis_vector_3'> +2.1136350e-04 </wgt>
<wgt id='morphing_basis_vector_4'> +1.2980043e-04 </wgt>
<wgt id='morphing_basis_vector_5'> +2.1166310e-04 </wgt>
</rwgt>
</event>
<event>
 4      1 +7.8865000e-07 1.17708200e+03 7.81860800e-03 8.53185300e-02
        2 -1    0    0  501    0 +0.0000000000e+00 +0.0000000000e+00 +1.5355488606e+03 1.5355488606e+03 0.0000000000e+00 0.0000e+00 -1.0000e+00
       -2 -1    0    0    0  501 -0.0000000000e+00 -0.0000000000e+00 -2.2557452378e+02 2.2557452378e+02 0.0000000000e+00 0.0000e+00 1.0000e+00
      -13  1    1    2    0    0 -2.1557719816e+02 +2.8357436199e+02 -4.5972514004e+01 3.5916767559e+02 0.0000000000e+00 0.0000e+00 1.0000e+00
       13  1    1    2    0    0 +2.1557719816e+02 -2.8357436199e+02 +1.3559468508e+03 1.4019557088e+03 0.0000000000e+00 0.0000e+00 -1.0000e+00
<mgrwt>
<rscale>  0 0.11770823E+04</rscale>
<asrwt>0</asrwt>
<pdfrwt beam="1">  1        2 0.23623828E+00 0.11770823E+04</pdfrwt>
<pdfrwt beam="2">  1       -2 0.34703774E-01 0.11770823E+04</pdfrwt>
<totfact> 0.11388308E+02</totfact>
</mgrwt>
<rwgt>
<wgt id='morphing_basis_vector_1'> +2.2871955e-04 </wgt>
<wgt id='morphing_basis_vector_2'> +1.4635165e-04 </wgt>
<wgt id='morphing_basis_vector_3'> +2.2832940e-04 </wgt>
<wgt id='morphing_basis_vector_4'> +1.4652805e-04 </wgt>
<wgt id='morphing_basis_vector_5'> +2.3287703e-04 </wgt>
</rwgt>
</event>
<event>
 4      1 +7.8865000e-07 1.25585600e+03 7.81860800e-03 8.47274400e-02
        2 -1    0    0  501    0 +0.0000000000e+00 +0.0000000000e+00 +1.6055272621e+03 1.6055272621e+03 0.0000000000e+00 0.0000e+00 -1.0000e+00
       -2 -1    0    0    0  501 -0.0000000000e+00 -0.0000000000e+00 -2.4558529185e+02 2.4558529185e+02 0.0000000000e+00 0.0000e+00 1.0000e+00
      -13  1    1    2    0    0 -2.1360636742e+01 +6.0813723806e+02 +4.5159045244e+02 7.5777378805e+02 0.0000000000e+00 0.0000e+00 1.0000e+00
       13  1    1    2    0    0 +2.1360636742e+01 -6.0813723806e+02 +9.0835151777e+02 1.0933387659e+03 0.0000000000e+00 0.0000e+00 -1.0000e+00
<mgrwt>
<rscale>  0 0.12558565E+04</rscale>
<asrwt>0</asrwt>
<pdfrwt beam="1">  1        2 0.24700419E+00 0.12558565E+04</pdfrwt>
<pdfrwt beam="2">  1       -2 0.37782354E-01 0.12558565E+04</pdfrwt>
<totfact> 0.88580969E+01</totfact>
</mgrwt>
<rwgt>
<wgt id='morphing_basis_vector_1'> +2.9629842e-04 </wgt>
<wgt id='morphing_basis_vector_2'> +2.0027635e-04 </wgt>
<wgt id='morphing_basis_vector_3'> +3.0001577e-04 </wgt>
<wgt id='morphing_basis_vector_4'> +1.8557694e-04 </wgt>
<wgt id='morphing_basis_vector_5'> +3.0573064e-04 </wgt>
</rwgt>
</event>
<event>
 4      1 +7.8865000e-07 1.27002400e+03 7.81860800e-03 8.46259600e-02
        2 -1    0    0  501    0 +0.0000000000e+00 +0.0000000000e+00 +3.2011352636e+03 3.2011352636e+03 0.0000000000e+00 0.0000e+00 1.0000e+00
       -2 -1    0    0    0  501 -0.0000000000e+00 -0.0000000000e+00 -1.2596796241e+02 1.2596796241e+02 0.0000000000e+00 0.0000e+00 -1.0000e+00
      -13  1    1    2    0    0 +4.3982021244e+02 +2.9325883841e+02 +6.1583843850e+02 8.1160307288e+02 0.0000000000e+00 0.0000e+00 -1.0000e+00
       13  1    1    2    0    0 -4.3982021244e+02 -2.9325883841e+02 +2.4593288627e+03 2.5155001531e+03 0.0000000000e+00 0.0000e+00 1.0000e+00
<mgrwt>
<rscale>  0 0.12700244E+04</rscale>
<asrwt>0</asrwt>
<pdfrwt beam="1">  1        2 0.49248229E+00 0.12700244E+04</pdfrwt>
<pdfrwt beam="2">  1       -2 0.19379689E-01 0.12700244E+04</pdfrwt>
<totfact> 0.32129690E+01</totfact>
</mgrwt>
<rwgt>
<wgt id='morphing_basis_vector_1'> +3.0592146e-04 </wgt>
<wgt id='morphing_basis_vector_2'> +1.9936109e-04 </wgt>
<wgt id='morphing_basis_vector_3'> +3.0983859e-04 </wgt>
<wgt id='morphing_basis_vector_4'> +2.0031521e-04 </wgt>
<wgt id='morphing_basis_vector_5'> +3.2091264e-04 </wgt>
</rwgt>
</event>
<event>
 4      1 +7.8865000e-07 1.08486800e+03 7.81860800e-03 8.60754500e-02
        2 -1    0    0  501    0 +0.0000000000e+00 +0.0000000000e+00 +7.6979515964e+02 7.6979515964e+02 0.0000000000e+00 0.0000e+00 -1.0000e+00
       -2 -1    0    0    0  501 -0.0000000000e+00 -0.0000000000e+00 -3.8222458356e+02 3.8222458356e+02 0.0000000000e+00 0.0000e+00 1.0000e+00
      -13  1    1    2    0    0 +2.7736656841e+02 +4.6202511161e+02 +2.5954774304e+02 5.9813413876e+02 0.0000000000e+00 0.0000e+00 1.0000e+00
       13  1    1    2    0    0 -2.7736656841e+02 -4.6202511161e+02 +1.2802283303e+02 5.5388560444e+02 0.0000000000e+00 0.0000e+00 -1.0000e+00
<mgrwt>
<rscale>  0 0.10848680E+04</rscale>
<asrwt>0</asrwt>
<pdfrwt beam="1">  1        2 0.11843002E+00 0.10848680E+04</pdfrwt>
<pdfrwt beam="2">  1       -2 0.58803782E-01 0.10848680E+04</pdfrwt>
<totfact> 0.12095781E+02</totfact>
</mgrwt>
<rwgt>
<wgt id='morphing_basis_vector_1'> +1.7729896e-04 </wgt>
<wgt id='morphing_basis_vector_2'> +1.3366177e-04 </wgt>
<wgt id='morphing_basis_vector_3'> +1.7438924e-04 </wgt>
<wgt id='morphing_basis_vector_4'> +8.9039638e-05 </wgt>
<wgt id='morphing_basis_vector_5'> +1.6352476e-04 </wgt>
</rwgt>
</event>
<event>
 4      1 +7.8865000e-07 1.24262900e+03 7.81860800e-03 8.48234600e-02
        2 -1    0    0  501    0 +0.0000000000e+00 +0.0000000000e+00 +8.7292102422e+02 8.7292102422e+02 0.0000000000e+00 0.0000e+00 -1.0000e+00
       -2 -1    0    0    0  501 -0.0000000000e+00 -0.0000000000e+00 -4.4222960364e+02 4.4222960364e+02 0.0000000000e+00 0.0000e+00 1.0000e+00
      -13  1    1    2    0    0 +5.8873075088e+02 +1.9761349434e+02 +2.3588251949e+02 6.6430080023e+02 0.0000000000e+00 0.0000e+00 1.0000e+00
       13  1    1    2    0    0 -5.8873075088e+02 -1.9761349434e+02 +1.9480890109e+02 6.5084982763e+02 0.0000000000e+00 0.0000e+00 -1.0000e+00
<mgrwt>
<rscale>  0 0.12426287E+04</rscale>
<asrwt>0</asrwt>
<pdfrwt beam="1">  1        2 0.13429554E+00 0.12426287E+04</pdfrwt>
<pdfrwt beam="2">  1       -2 0.68035324E-01 0.12426287E+04</pdfrwt>
<totfact> 0.74998919E+01</totfact>
</mgrwt>
<rwgt>
<wgt id='morphing_basis_vector_1'> +2.9200784e-04 </wgt>
<wgt id='morphing_basis_vector_2'> +2.1435815e-04 </wgt>
<wgt id='morphing_basis_vector_3'> +2.9622378e-04 </wgt>
<wgt id='morphing_basis_vector_4'> +1.6461733e-04 </wgt>
<wgt id='morphing_basis_vector_5'> +2.9150312e-04 </wgt>
</rwgt>
</event>
<event>
 4      1 +7.8865000e-07 1.10046600e+03 7.81860800e-03 8.59420500e-02
        2 -1    0    0  501    0 +0.0000000000e+00 +0.0000000000e+00 +4.8530755471e+02 4.8530755471e+02 0.0000000000e+00 0.0000e+00 1.0000e+00
       -2 -1    0    0    0  501 -0.0000000000e+00 -0.0000000000e+00 -6.2384482469e+02 6.2384482469e+02 0.0000000000e+00 0.0000e+00 -1.0000e+00
      -13  1    1    2    0    0 -2.7680542654e+02 -1.1116158375e+02 +3.9674259443e+02 4.9636964865e+02 0.0000000000e+00 0.0000e+00 1.0000e+00
       13  1    1    2    0    0 +2.7680542654e+02 +1.1116158375e+02 -5.3527986441e+02 6.1278273075e+02 0.0000000000e+00 0.0000e+00 -1.0000e+00
<mgrwt>
<rscale>  0 0.11004665E+04</rscale>
<asrwt>0</asrwt>
<pdfrwt beam="1">  1        2 0.74662701E-01 0.11004665E+04</pdfrwt>
<pdfrwt beam="2">  1       -2 0.95976126E-01 0.11004665E+04</pdfrwt>
<totfact> 0.71067450E+01</totfact>
</mgrwt>
<rwgt>
<wgt id='morphing_basis_vector_1'> +2.3846342e-04 </wgt>
<wgt id='morphing_basis_vector_2'> +2.9625685e-04 </wgt>
<wgt id='morphing_basis_vector_3'> +2.3829920e-04 </wgt>
<wgt id='morphing_basis_vector_4'> +1.0232403e-05 </wgt>
<wgt id='morphing_basis_vector_5'> +1.6839652e-04 </wgt>
</rwgt>
</event>
<event>
 4      1 +7.8865000e-07 1.08610700e+03 7.81860800e-03 8.60647700e-02
        2 -1    0    0  501    0 +0.0000000000e+00 +0.0000000000e+00 +2.9300518404e+03 2.9300518404e+03 0.0000000000e+00 0.0000e+00 1.0000e+00
       -2 -1    0    0    0  501 -0.0000000000e+00 -0.0000000000e+00 -1.0064920019e+02 1.0064920019e+02 0.0000000000e+00 0.0000e+00 -1.0000e+00
      -13  1    1    2    0    0 +3.6419091897e+02 -3.1723798694e+02 +7.2195399768e+02 8.6861530068e+02 0.0000000000e+00 0.0000e+00 -1.0000e+00
       13  1    1    2    0    0 -3.6419091897e+02 +3.1723798694e+02 +2.1074486425e+03 2.1620857399e+03 0.0000000000e+00 0.0000e+00 1.0000e+00
<mgrwt>
<rscale>  0 0.10861075E+04</rscale>
<asrwt>0</asrwt>
<pdfrwt beam="1">  1        2 0.45077714E+00 0.10861075E+04</pdfrwt>
<pdfrwt beam="2">  1       -2 0.15484495E-01 0.10861075E+04</pdfrwt>
<totfact> 0.71224613E+01</totfact>
</mgrwt>
<rwgt>
<wgt id='morphing_basis_vector_1'> +1.6989424e-04 </wgt>
<wgt id='morphing_basis_vector_2'> +1.0962372e-04 </wgt>
<wgt id='morphing_basis_vector_3'> +1.6679607e-04 </wgt>
<wgt id='morphing_basis_vector_4'> +1.0276536e-04 </wgt>
<wgt id='morphing_basis_vector_5'> +1.6517395e-04 </wgt>
</rwgt>
</event>
<event>
 4      1 +7.8865000e-07 1.09544000e+03 7.81860800e-03 8.59847900e-02
        2 -1    0    0  501    0 +0.0000000000e+00 +0.0000000000e+00 +2.0688610241e+02 2.0688610241e+02 0.0000000000e+00 0.0000e+00 -1.0000e+00
       -2 -1    0    0    0  501 -0.0000000000e+00 -0.0000000000e+00 -1.4500587480e+03 1.4500587480e+03 0.0000000000e+00 0.0000e+00 1.0000e+00
      -13  1    1    2    0    0 +2.1335461009e+02 -1.4410136753e+02 -1.3528259907e+03 1.3771069512e+03 0.0000000000e+00 0.0000e+00 1.0000e+00
       13  1    1    2    0    0 -2.1335461009e+02 +1.4410136753e+02 +1.0965334511e+02 2.7983789927e+02 0.0000000000e+00 0.0000e+00 -1.0000e+00
<mgrwt>
<rscale>  0 0.10954396E+04</rscale>
<asrwt>0</asrwt>
<pdfrwt beam="1">  1        2 0.31828632E-01 0.10954396E+04</pdfrwt>
<pdfrwt beam="2">  1       -2 0.22308595E+00 0.10954396E+04</pdfrwt>
<totfact> 0.16424440E+01</totfact>
</mgrwt>
<rwgt>
<wgt id='morphing_basis_vector_1'> +1.7449679e-04 </wgt>
<wgt id='morphing_basis_vector_2'> +1.1052874e-04 </wgt>
<wgt id='morphing_basis_vector_3'> +1.7159932e-04 </wgt>
<wgt id='morphing_basis_vector_4'> +1.0809431e-04 </wgt>
<wgt id='morphing_basis_vector_5'> +1.7143751e-04 </wgt>
</rwgt>
</event>
<event>
 4      1 +7.8865000e-07 1.26904300e+03 7.81860800e-03 8.46329400e-02
        2 -1    0    0  501    0 +0.0000000000e+00 +0.0000000000e+00 +3.9622300450e+02 3.9622300450e+02 0.0000000000e+00 0.0000e+00 -1.0000e+00
       -2 -1    0    0    0  501 -0.0000000000e+00 -0.0000000000e+00 -1.0161382879e+03 1.0161382879e+03 0.0000000000e+00 0.0000e+00 1.0000e+00
      -13  1    1    2    0    0 -1.3006321007e+01 +5.1965903398e+02 -7.1492308290e+02 8.8392855506e+02 0.0000000000e+00 0.0000e+00 1.0000e+00
       13  1    1    2    0    0 +1.3006321007e+01 -5.1965903398e+02 +9.5007799464e+01 5.2843273738e+02 0.0000000000e+00 0.0000e+00 -1.0000e+00
<mgrwt>
<rscale>  0 0.12690427E+04</rscale>
<asrwt>0</asrwt>
<pdfrwt beam="1">  1        2 0.60957385E-01 0.12690427E+04</pdfrwt>
<pdfrwt beam="2">  1       -2 0.15632897E+00 0.12690427E+04</pdfrwt>
<totfact> 0.24504070E+01</totfact>
</mgrwt>
<rwgt>
<wgt id='morphing_basis_vector_1'> +3.0491663e-04 </wgt>
<wgt id='morphing_basis_vector_2'> +1.9844202e-04 </wgt>
<wgt id='morphing_basis_vector_3'> +3.0876141e-04 </wgt>
<wgt id='morphing_basis_vector_4'> +1.9985294e-04 </wgt>
<wgt id='morphing_basis_vector_5'> +3.1988361e-04 </wgt>
</rwgt>
</event>
<event>
 4      1 +7.8865000e-07 1.21502200e+03 7.81860800e-03 8.50279600e-02
        2 -1    0    0  501    0 +0.0000000000e+00 +0.0000000000e+00 +1.3707611443e+03 1.3707611443e+03 0.0000000000e+00 0.0000e+00 -1.0000e+00
       -2 -1    0    0    0  501 -0.0000000000e+00 -0.0000000000e+00 -2.6924428169e+02 2.6924428169e+02 0.0000000000e+00 0.0000e+00 1.0000e+00
      -13  1    1    2    0    0 +5.2424329414e+02 +2.4613965812e+02 +3.0314257859e+02 6.5369043568e+02 0.0000000000e+00 0.0000e+00 1.0000e+00
       13  1    1    2    0    0 -5.2424329414e+02 -2.4613965812e+02 +7.9837428404e+02 9.8631499034e+02 0.0000000000e+00 0.0000e+00 -1.0000e+00
<mgrwt>
<rscale>  0 0.12150220E+04</rscale>
<asrwt>0</asrwt>
<pdfrwt beam="1">  1        2 0.21088633E+00 0.12150220E+04</pdfrwt>
<pdfrwt beam="2">  1       -2 0.41422198E-01 0.12150220E+04</pdfrwt>
<totfact> 0.10130524E+02</totfact>
</mgrwt>
<rwgt>
<wgt id='morphing_basis_vector_1'> +2.6061599e-04 </wgt>
<wgt id='morphing_basis_vector_2'> +1.7383346e-04 </wgt>
<wgt id='morphing_basis_vector_3'> +2.6213314e-04 </wgt>
<wgt id='morphing_basis_vector_4'> +1.6278870e-04 </wgt>
<wgt id='morphing_basis_vector_5'> +2.6603178e-04 </wgt>
</rwgt>
</event>
<event>
 4      1 +7.8865000e-07 1.18252200e+03 7.81860800e-03 8.52761700e-02
        2 -1    0    0  501    0 +0.0000000000e+00 +0.0000000000e+00 +1.5187370159e+03 1.5187370159e+03 0.0000000000e+00 0.0000e+00 -1.0000e+00
       -2 -1    0    0    0  501 -0.0000000000e+00 -0.0000000000e+00 -2.3018440593e+02 2.3018440593e+02 0.0000000000e+00 0.0000e+00 1.0000e+00
      -13  1    1    2    0    0 +5.4366854770e+02 -1.1371162120e+02 +3.4450080931e+02 6.5359515770e+02 0.0000000000e+00 0.0000e+00 1.0000e+00
       13  1    1    2    0    0 -5.4366854770e+02 +1.1371162120e+02 +9.4405180062e+02 1.0953262641e+03 0.0000000000e+00 0.0000e+00 -1.0000e+00
<mgrwt>
<rscale>  0 0.11825220E+04</rscale>
<asrwt>0</asrwt>
<pdfrwt beam="1">  1        2 0.23365184E+00 0.11825220E+04</pdfrwt>
<pdfrwt beam="2">  1       -2 0.35412986E-01 0.11825220E+04</pdfrwt>
<totfact> 0.11211821E+02</totfact>
</mgrwt>
<rwgt>
<wgt id='morphing_basis_vector_1'> +2.3478758e-04 </wgt>
<wgt id='morphing_basis_vector_2'> +1.5516586e-04 </wgt>
<wgt id='morphing_basis_vector_3'> +2.3484076e-04 </wgt>
<wgt id='morphing_basis_vector_4'> +1.4591746e-04 </wgt>
<wgt id='morphing_basis_vector_5'> +2.3724024e-04 </wgt>
</rwgt>
</event>
<event>
 4      1 +7.8865000e-07 1.27465800e+03 7.81860800e-03 8.45930700e-02
        2 -1    0    0  501    0 +0.0000000000e+00 +0.0000000000e+00 +1.1358584181e+03 1.1358584181e+03 0.0000000000e+00 0.0000e+00 -1.0000e+00
       -2 -1    0    0    0  501 -0.0000000000e+00 -0.0000000000e+00 -3.5760486456e+02 3.5760486456e+02 0.0000000000e+00 0.0000e+00 1.0000e+00
      -13  1    1    2    0    0 +5.8912592632e+02 -5.5679622860e+01 +1.1181513380e+02 6.0222271762e+02 0.0000000000e+00 0.0000e+00 1.0000e+00
       13  1    1    2    0    0 -5.8912592632e+02 +5.5679622860e+01 +6.6643841977e+02 8.9124056506e+02 0.0000000000e+00 0.0000e+00 -1.0000e+00
<mgrwt>
<rscale>  0 0.12746584E+04</rscale>
<asrwt>0</asrwt>
<pdfrwt beam="1">  1        2 0.17474745E+00 0.12746584E+04</pdfrwt>
<pdfrwt beam="2">  1       -2 0.55016134E-01 0.12746584E+04</pdfrwt>
<totfact> 0.79446281E+01</totfact>
</mgrwt>
<rwgt>
<wgt id='morphing_basis_vector_1'> +3.1172711e-04 </wgt>
<wgt id='morphing_basis_vector_2'> +2.0681971e-04 </wgt>
<wgt id='morphing_basis_vector_3'> +3.1618315e-04 </wgt>
<wgt id='morphing_basis_vector_4'> +2.0069321e-04 </wgt>
<wgt id='morphing_basis_vector_5'> +3.2567645e-04 </wgt>
</rwgt>
</event>
<event>
 4      1 +7.8865000e-07 1.15156000e+03 7.81860800e-03 8.55205600e-02
        2 -1    0    0  501    0 +0.0000000000e+00 +0.0000000000e+00 +1.4392090984e+03 1.4392090984e+03 0.0000000000e+00 0.0000e+00 -1.0000e+00
       -2 -1    0    0    0  501 -0.0000000000e+00 -0.0000000000e+00 -2.3035060711e+02 2.3035060711e+02 0.0000000000e+00 0.0000e+00 1.0000e+00
      -13  1    1    2    0    0 -3.8802489764e+02 +4.1777761376e+02 +7.2060742686e+02 9.1889962422e+02 0.0000000000e+00 0.0000e+00 1.0000e+00
       13  1    1    2    0    0 +3.8802489764e+02 -4.1777761376e+02 +4.8825106445e+02 7.5066008132e+02 0.0000000000e+00 0.0000e+00 -1.0000e+00
<mgrwt>
<rscale>  0 0.11515601E+04</rscale>
<asrwt>0</asrwt>
<pdfrwt beam="1">  1        2 0.22141678E+00 0.11515601E+04</pdfrwt>
<pdfrwt beam="2">  1       -2 0.35438556E-01 0.11515601E+04</pdfrwt>
<totfact> 0.12432382E+02</totfact>
</mgrwt>
<rwgt>
<wgt id='morphing_basis_vector_1'> +2.2283084e-04 </wgt>
<wgt id='morphing_basis_vector_2'> +1.7127082e-04 </wgt>
<wgt id='morphing_basis_vector_3'> +2.2266515e-04 </wgt>
<wgt id='morphing_basis_vector_4'> +1.1293853e-04 </wgt>
<wgt id='morphing_basis_vector_5'> +2.1080644e-04 </wgt>
</rwgt>
</event>
<event>
 4      1 +7.8865000e-07 1.15768700e+03 7.81860800e-03 8.54715700e-02
        2 -1    0    0  501    0 +0.0000000000e+00 +0.0000000000e+00 +9.7741723828e+02 9.7741723828e+02 0.0000000000e+00 0.0000e+00 1.0000e+00
       -2 -1    0    0    0  501 -0.0000000000e+00 -0.0000000000e+00 -3.4280104734e+02 3.4280104734e+02 0.0000000000e+00 0.0000e+00 -1.0000e+00
      -13  1    1    2    0    0 +3.6061117856e+02 -3.3692608270e+02 -2.7649201545e+01 4.9429149867e+02 0.0000000000e+00 0.0000e+00 -1.0000e+00
       13  1    1    2    0    0 -3.6061117856e+02 +3.3692608270e+02 +6.6226539249e+02 8.2592678695e+02 0.0000000000e+00 0.0000e+00 1.0000e+00
<mgrwt>
<rscale>  0 0.11576868E+04</rscale>
<asrwt>0</asrwt>
<pdfrwt beam="1">  1        2 0.15037188E+00 0.11576868E+04</pdfrwt>
<pdfrwt beam="2">  1       -2 0.52738623E-01 0.11576868E+04</pdfrwt>
<totfact> 0.10894237E+02</totfact>
</mgrwt>
<rwgt>
<wgt id='morphing_basis_vector_1'> +2.1555006e-04 </wgt>
<wgt id='morphing_basis_vector_2'> +1.3937097e-04 </wgt>
<wgt id='morphing_basis_vector_3'> +2.1454496e-04 </wgt>
<wgt id='morphing_basis_vector_4'> +1.3535970e-04 </wgt>
<wgt id='morphing_basis_vector_5'> +2.1693206e-04 </wgt>
</rwgt>
</event>
<event>
 4      1 +7.8865000e-07 1.07952900e+03 7.81860800e-03 8.61216500e-02
        2 -1    0    0  501    0 +0.0000000000e+00 +0.0000000000e+00 +2.0455570522e+03 2.0455570522e+03 0.0000000000e+00 0.0000e+00 -1.0000e+00
       -2 -1    0    0    0  501 -0.0000000000e+00 -0.0000000000e+00 -1.4242842116e+02 1.4242842116e+02 0.0000000000e+00 0.0000e+00 1.0000e+00
      -13  1    1    2    0    0 +3.1280574533e+02 +7.5912953115e+01 +7.3384959796e+01 3.3014476081e+02 0.0000000000e+00 0.0000e+00 1.0000e+00
       13  1    1    2    0    0 -3.1280574533e+02 -7.5912953115e+01 +1.8297436713e+03 1.8578407126e+03 0.0000000000e+00 0.0000e+00 -1.0000e+00
<mgrwt>
<rscale>  0 0.10795285E+04</rscale>
<asrwt>0</asrwt>
<pdfrwt beam="1">  1        2 0.31470106E+00 0.10795285E+04</pdfrwt>
<pdfrwt beam="2">  1       -2 0.21912066E-01 0.10795285E+04</pdfrwt>
<totfact> 0.13359557E+02</totfact>
</mgrwt>
<rwgt>
<wgt id='morphing_basis_vector_1'> +1.6525977e-04 </wgt>
<wgt id='morphing_basis_vector_2'> +1.0460457e-04 </wgt>
<wgt id='morphing_basis_vector_3'> +1.6198511e-04 </wgt>
<wgt id='morphing_basis_vector_4'> +1.0146504e-04 </wgt>
<wgt id='morphing_basis_vector_5'> +1.6100995e-04 </wgt>
</rwgt>
</event>
<event>
 4      1 +7.8865000e-07 1.09560700e+03 7.81860800e-03 8.59833600e-02
        2 -1    0    0  501    0 +0.0000000000e+00 +0.0000000000e+00 +1.1197691620e+03 1.1197691620e+03 0.0000000000e+00 0.0000e+00 -1.0000e+00
       -2 -1    0    0    0  501 -0.0000000000e+00 -0.0000000000e+00 -2.6799149932e+02 2.6799149932e+02 0.0000000000e+00 0.0000e+00 1.0000e+00
      -13  1    1    2    0    0 +1.6214035513e+02 -1.9475582660e+02 -1.8928168953e+02 3.1630188862e+02 0.0000000000e+00 0.0000e+00 1.0000e+00
       13  1    1    2    0    0 -1.6214035513e+02 +1.9475582660e+02 +1.0410593522e+03 1.0714587727e+03 0.0000000000e+00 0.0000e+00 -1.0000e+00
<mgrwt>
<rscale>  0 0.10956069E+04</rscale>
<asrwt>0</asrwt>
<pdfrwt beam="1">  1        2 0.17227218E+00 0.10956069E+04</pdfrwt>
<pdfrwt beam="2">  1       -2 0.41229462E-01 0.10956069E+04</pdfrwt>
<totfact> 0.14403119E+02</totfact>
</mgrwt>
<rwgt>
<wgt id='morphing_basis_vector_1'> +1.7459464e-04 </wgt>
<wgt id='morphing_basis_vector_2'> +1.1058842e-04 </wgt>
<wgt id='morphing_basis_vector_3'> +1.7170125e-04 </wgt>
<wgt id='morphing_basis_vector_4'> +1.0816777e-04 </wgt>
<wgt id='morphing_basis_vector_5'> +1.7154981e-04 </wgt>
</rwgt>
</event>
<event>
 4      1 +7.8865000e-07 1.24956600e+03 7.81860800e-03 8.47729400e-02
        2 -1    0    0  501    0 +0.0000000000e+00 +0.0000000000e+00 +8.9064015209e+02 8.9064015209e+02 0.0000000000e+00 0.0000e+00 -1.0000e+00
       -2 -1    0    0    0  501 -0.0000000000e+00 -0.0000000000e+00 -4.3828484293e+02 4.3828484293e+02 0.0000000000e+00 0.0000e+00 1.0000e+00
      -13  1    1    2    0    0 -5.1191892499e+02 +3.0953363438e+02 +4.1785140706e+02 7.2970669104e+02 0.0000000000e+00 0.0000e+00 1.0000e+00
       13  1    1    2    0    0 +5.1191892499e+02 -3.0953363438e+02 +3.4503902100e+01 5.9921830398e+02 0.0000000000e+00 0.0000e+00 -1.0000e+00
<mgrwt>
<rscale>  0 0.12495665E+04</rscale>
<asrwt>0</asrwt>
<pdfrwt beam="1">  1        2 0.13702156E+00 0.12495665E+04</pdfrwt>
<pdfrwt beam="2">  1       -2 0.67428437E-01 0.12495665E+04</pdfrwt>
<totfact> 0.74371521E+01</totfact>
</mgrwt>
<rwgt>
<wgt id='morphing_basis_vector_1'> +3.1442354e-04 </wgt>
<wgt id='morphing_basis_vector_2'> +2.6755299e-04 </wgt>
<wgt id='morphing_basis_vector_3'> +3.2180554e-04 </wgt>
<wgt id='morphing_basis_vector_4'> +1.4024885e-04 </wgt>
<wgt id='morphing_basis_vector_5'> +2.9646386e-04 </wgt>
</rwgt>
</event>
<event>
 4      1 +7.8865000e-07 1.16992700e+03 7.81860800e-03 8.53746300e-02
        2 -1    0    0  501    0 +0.0000000000e+00 +0.0000000000e+00 +2.0406086980e+03 2.0406086980e+03 0.0000000000e+00 0.0000e+00 1.0000e+00
       -2 -1    0    0    0  501 -0.0000000000e+00 -0.0000000000e+00 -1.6768626411e+02 1.6768626411e+02 0.0000000000e+00 0.0000e+00 -1.0000e+00
      -13  1    1    2    0    0 +2.6209907643e+02 -4.5745906892e+02 +4.5813457055e+02 6.9846403653e+02 0.0000000000e+00 0.0000e+00 -1.0000e+00
       13  1    1    2    0    0 -2.6209907643e+02 +4.5745906892e+02 +1.4147878634e+03 1.5098309256e+03 0.0000000000e+00 0.0000e+00 1.0000e+00
<mgrwt>
<rscale>  0 0.11699266E+04</rscale>
<asrwt>0</asrwt>
<pdfrwt beam="1">  1        2 0.31393978E+00 0.11699266E+04</pdfrwt>
<pdfrwt beam="2">  1       -2 0.25797888E-01 0.11699266E+04</pdfrwt>
<totfact> 0.10097883E+02</totfact>
</mgrwt>
<rwgt>
<wgt id='morphing_basis_vector_1'> +2.2477383e-04 </wgt>
<wgt id='morphing_basis_vector_2'> +1.4670235e-04 </wgt>
<wgt id='morphing_basis_vector_3'> +2.2425857e-04 </wgt>
<wgt id='morphing_basis_vector_4'> +1.4066623e-04 </wgt>
<wgt id='morphing_basis_vector_5'> +2.2678576e-04 </wgt>
</rwgt>
</event>
<event>
 4      1 +7.8865000e-07 1.28687600e+03 7.81860800e-03 8.45070500e-02
        2 -1    0    0  501    0 +0.0000000000e+00 +0.0000000000e+00 +2.2324087434e+03 2.2324087434e+03 0.0000000000e+00 0.0000e+00 1.0000e+00
       -2 -1    0    0    0  501 -0.0000000000e+00 -0.0000000000e+00 -1.8545542969e+02 1.8545542969e+02 0.0000000000e+00 0.0000e+00 -1.0000e+00
      -13  1    1    2    0    0 -5.6163037018e+02 -8.3779429630e+01 +4.5493903637e+02 7.2761060489e+02 0.0000000000e+00 0.0000e+00 -1.0000e+00
       13  1    1    2    0    0 +5.6163037018e+02 +8.3779429630e+01 +1.5920142773e+03 1.6902535682e+03 0.0000000000e+00 0.0000e+00 1.0000e+00
<mgrwt>
<rscale>  0 0.12868758E+04</rscale>
<asrwt>0</asrwt>
<pdfrwt beam="1">  1        2 0.34344748E+00 0.12868758E+04</pdfrwt>
<pdfrwt beam="2">  1       -2 0.28531606E-01 0.12868758E+04</pdfrwt>
<totfact> 0.65347699E+01</totfact>
</mgrwt>
<rwgt>
<wgt id='morphing_basis_vector_1'> +3.2226545e-04 </wgt>
<wgt id='morphing_basis_vector_2'> +2.1168882e-04 </wgt>
<wgt id='morphing_basis_vector_3'> +3.2723791e-04 </wgt>
<wgt id='morphing_basis_vector_4'> +2.1063999e-04 </wgt>
<wgt id='morphing_basis_vector_5'> +3.3911975e-04 </wgt>
</rwgt>
</event>
<event>
 4      1 +7.8865000e-07 1.07249700e+03 7.81860800e-03 8.61829100e-02
        2 -1    0    0  501    0 +0.0000000000e+00 +0.0000000000e+00 +3.2747716028e+02 3.2747716028e+02 0.0000000000e+00 0.0000e+00 1.0000e+00
       -2 -1    0    0    0  501 -0.0000000000e+00 -0.0000000000e+00 -8.7811409011e+02 8.7811409011e+02 0.0000000000e+00 0.0000e+00 -1.0000e+00
      -13  1    1    2    0    0 -2.1890105183e+02 +4.7426104108e+02 -1.3893105327e+02 5.4050258384e+02 0.0000000000e+00 0.0000e+00 1.0000e+00
       13  1    1    2    0    0 +2.1890105183e+02 -4.7426104108e+02 -4.1170587656e+02 6.6508866655e+02 0.0000000000e+00 0.0000e+00 -1.0000e+00
<mgrwt>
<rscale>  0 0.10724967E+04</rscale>
<asrwt>0</asrwt>
<pdfrwt beam="1">  1        2 0.50381102E-01 0.10724967E+04</pdfrwt>
<pdfrwt beam="2">  1       -2 0.13509447E+00 0.10724967E+04</pdfrwt>
<totfact> 0.46542332E+01</totfact>
</mgrwt>
<rwgt>
<wgt id='morphing_basis_vector_1'> +1.7386033e-04 </wgt>
<wgt id='morphing_basis_vector_2'> +1.3997710e-04 </wgt>
<wgt id='morphing_basis_vector_3'> +1.7060384e-04 </wgt>
<wgt id='morphing_basis_vector_4'> +7.8332367e-05 </wgt>
<wgt id='morphing_basis_vector_5'> +1.5527070e-04 </wgt>
</rwgt>
</event>
<event>
 4      1 +7.8865000e-07 1.17029200e+03 7.81860800e-03 8.53717500e-02
        2 -1    0    0  501    0 +0.0000000000e+00 +0.0000000000e+00 +9.1940725228e+02 9.1940725228e+02 0.0000000000e+00 0.0000e+00 -1.0000e+00
       -2 -1    0    0    0  501 -0.0000000000e+00 -0.0000000000e+00 -3.7240963761e+02 3.7240963761e+02 0.0000000000e+00 0.0000e+00 1.0000e+00
      -13  1    1    2    0    0 +2.5230494917e+02 -4.2589749130e+00 -3.0926257300e+02 3.9914817461e+02 0.0000000000e+00 0.0000e+00 1.0000e+00
       13  1    1    2    0    0 -2.5230494917e+02 +4.2589749130e+00 +8.5626018767e+02 8.9266871527e+02 0.0000000000e+00 0.0000e+00 -1.0000e+00
<mgrwt>
<rscale>  0 0.11702925E+04</rscale>
<asrwt>0</asrwt>
<pdfrwt beam="1">  1        2 0.14144727E+00 0.11702925E+04</pdfrwt>
<pdfrwt beam="2">  1       -2 0.57293791E-01 0.11702925E+04</pdfrwt>
<totfact> 0.10036252E+02</totfact>
</mgrwt>
<rwgt>
<wgt id='morphing_basis_vector_1'> +2.2368854e-04 </wgt>
<wgt id='morphing_basis_vector_2'> +1.4281945e-04 </wgt>
<wgt id='morphing_basis_vector_3'> +2.2304225e-04 </wgt>
<wgt id='morphing_basis_vector_4'> +1.4314173e-04 </wgt>
<wgt id='morphing_basis_vector_5'> +2.2724011e-04 </wgt>
</rwgt>
</event>
<event>
 4      1 +7.8865000e-07 1.07813800e+03 7.81860800e-03 8.61337300e-02
        2 -1    0    0  501    0 +0.0000000000e+00 +0.0000000000e+00 +1.0738946958e+03 1.0738946958e+03 0.0000000000e+00 0.0000e+00 -1.0000e+00
       -2 -1    0    0    0  501 -0.0000000000e+00 -0.0000000000e+00 -2.7059928550e+02 2.7059928550e+02 0.0000000000e+00 0.0000e+00 1.0000e+00
      -13  1    1    2    0    0 +2.0046616545e+02 -2.2370786050e+02 +9.5985270981e+02 1.0057579803e+03 0.0000000000e+00 0.0000e+00 -1.0000e+00
       13  1    1    2    0    0 -2.0046616545e+02 +2.2370786050e+02 -1.5655729954e+02 3.3873600100e+02 0.0000000000e+00 0.0000e+00 1.0000e+00
<mgrwt>
<rscale>  0 0.10781375E+04</rscale>
<asrwt>0</asrwt>
<pdfrwt beam="1">  1        2 0.16521457E+00 0.10781375E+04</pdfrwt>
<pdfrwt beam="2">  1       -2 0.41630660E-01 0.10781375E+04</pdfrwt>
<totfact> 0.15087670E+02</totfact>
</mgrwt>
<rwgt>
<wgt id='morphing_basis_vector_1'> +2.2032868e-04 </wgt>
<wgt id='morphing_basis_vector_2'> +2.7265148e-04 </wgt>
<wgt id='morphing_basis_vector_3'> +2.1813436e-04 </wgt>
<wgt id='morphing_basis_vector_4'> +1.0342415e-05 </wgt>
<wgt id='morphing_basis_vector_5'> +1.5437836e-04 </wgt>
</rwgt>
</event>
<event>
 4      1 +7.8865000e-07 1.26748600e+03 7.81860800e-03 8.46440300e-02
        2 -1    0    0  501    0 +0.0000000000e+00 +0.0000000000e+00 +2.1956300148e+03 2.1956300148e+03 0.0000000000e+00 0.0000e+00 1.0000e+00
       -2 -1    0    0    0  501 -0.0000000000e+00 -0.0000000000e+00 -1.8292254227e+02 1.8292254227e+02 0.0000000000e+00 0.0000e+00 -1.0000e+00
      -13  1    1    2    0    0 -3.6710049427e+02 +4.0349394713e+02 +4.0099661914e+02 6.7702911816e+02 0.0000000000e+00 0.0000e+00 -1.0000e+00
       13  1    1    2    0    0 +3.6710049427e+02 -4.0349394713e+02 +1.6117108534e+03 1.7015234390e+03 0.0000000000e+00 0.0000e+00 1.0000e+00
<mgrwt>
<rscale>  0 0.12674861E+04</rscale>
<asrwt>0</asrwt>
<pdfrwt beam="1">  1        2 0.33778921E+00 0.12674861E+04</pdfrwt>
<pdfrwt beam="2">  1       -2 0.28141931E-01 0.12674861E+04</pdfrwt>
<totfact> 0.70372776E+01</totfact>
</mgrwt>
<rwgt>
<wgt id='morphing_basis_vector_1'> +3.0388115e-04 </wgt>
<wgt id='morphing_basis_vector_2'> +1.9864752e-04 </wgt>
<wgt id='morphing_basis_vector_3'> +3.0771240e-04 </wgt>
<wgt id='morphing_basis_vector_4'> +1.9814922e-04 </wgt>
<wgt id='morphing_basis_vector_5'> +3.1818905e-04 </wgt>
</rwgt>
</event>
<event>
 4      1 +7.8865000e-07 1.12031200e+03 7.81860800e-03 8.57755800e-02
        2 -1    0    0  501    0 +0.0000000000e+00 +0.0000000000e+00 +1.4339983248e+03 1.4339983248e+03 0.0000000000e+00 0.0000e+00 1.0000e+00
       -2 -1    0    0    0  501 -0.0000000000e+00 -0.0000000000e+00 -2.1881098576e+02 2.1881098576e+02 0.0000000000e+00 0.0000e+00 -1.0000e+00
      -13  1    1    2    0    0 +6.9448545781e+01 +5.4103503519e+02 +7.9555893829e+02 9.6460148979e+02 0.0000000000e+00 0.0000e+00 1.0000e+00
       13  1    1    2    0    0 -6.9448545781e+01 -5.4103503519e+02 +4.1962840070e+02 6.8820782071e+02 0.0000000000e+00 0.0000e+00 -1.0000e+00
<mgrwt>
<rscale>  0 0.11203117E+04</rscale>
<asrwt>0</asrwt>
<pdfrwt beam="1">  1        2 0.22061512E+00 0.11203117E+04</pdfrwt>
<pdfrwt beam="2">  1       -2 0.33663229E-01 0.11203117E+04</pdfrwt>
<totfact> 0.13769987E+02</totfact>
</mgrwt>
<rwgt>
<wgt id='morphing_basis_vector_1'> +2.0478137e-04 </wgt>
<wgt id='morphing_basis_vector_2'> +1.6565883e-04 </wgt>
<wgt id='morphing_basis_vector_3'> +2.0347280e-04 </wgt>
<wgt id='morphing_basis_vector_4'> +9.4140278e-05 </wgt>
<wgt id='morphing_basis_vector_5'> +1.8709447e-04 </wgt>
</rwgt>
</event>
<event>
 4      1 +7.8865000e-07 1.09408800e+03 7.81860800e-03 8.59963200e-02
        2 -1    0    0  501    0 +0.0000000000e+00 +0.0000000000e+00 +7.2530742445e+02 7.2530742445e+02 0.0000000000e+00 0.0000e+00 -1.0000e+00
       -2 -1    0    0    0  501 -0.0000000000e+00 -0.0000000000e+00 -4.1259365158e+02 4.1259365158e+02 0.0000000000e+00 0.0000e+00 1.0000e+00
      -13  1    1    2    0    0 +1.1875764987e+02 +4.5045029659e+02 -1.4191744579e+02 4.8697988718e+02 0.0000000000e+00 0.0000e+00 1.0000e+00
       13  1    1    2    0    0 -1.1875764987e+02 -4.5045029659e+02 +4.5463121866e+02 6.5092118884e+02 0.0000000000e+00 0.0000e+00 -1.0000e+00
<mgrwt>
<rscale>  0 0.10940882E+04</rscale>
<asrwt>0</asrwt>
<pdfrwt beam="1">  1        2 0.11158576E+00 0.10940882E+04</pdfrwt>
<pdfrwt beam="2">  1       -2 0.63475947E-01 0.10940882E+04</pdfrwt>
<totfact> 0.11128008E+02</totfact>
</mgrwt>
<rwgt>
<wgt id='morphing_basis_vector_1'> +1.7433227e-04 </wgt>
<wgt id='morphing_basis_vector_2'> +1.1193101e-04 </wgt>
<wgt id='morphing_basis_vector_3'> +1.7142463e-04 </wgt>
<wgt id='morphing_basis_vector_4'> +1.0648068e-04 </wgt>
<wgt id='morphing_basis_vector_5'> +1.7046653e-04 </wgt>
</rwgt>
</event>
<event>
 4      1 +7.8865000e-07 1.19850300e+03 7.81860800e-03 8.51530800e-02
        2 -1    0    0  501    0 +0.0000000000e+00 +0.0000000000e+00 +1.1775623064e+03 1.1775623064e+03 0.0000000000e+00 0.0000e+00 1.0000e+00
       -2 -1    0    0    0  501 -0.0000000000e+00 -0.0000000000e+00 -3.0495399857e+02 3.0495399857e+02 0.0000000000e+00 0.0000e+00 -1.0000e+00
      -13  1    1    2    0    0 -2.6655760132e+02 -3.1050932931e+02 -1.0519265095e+02 4.2253342143e+02 0.0000000000e+00 0.0000e+00 -1.0000e+00
       13  1    1    2    0    0 +2.6655760132e+02 +3.1050932931e+02 +9.7780095878e+02 1.0599828835e+03 0.0000000000e+00 0.0000e+00 1.0000e+00
<mgrwt>
<rscale>  0 0.11985030E+04</rscale>
<asrwt>0</asrwt>
<pdfrwt beam="1">  1        2 0.18116343E+00 0.11985030E+04</pdfrwt>
<pdfrwt beam="2">  1       -2 0.46916000E-01 0.11985030E+04</pdfrwt>
<totfact> 0.10331485E+02</totfact>
</mgrwt>
<rwgt>
<wgt id='morphing_basis_vector_1'> +2.4496164e-04 </wgt>
<wgt id='morphing_basis_vector_2'> +1.5732970e-04 </wgt>
<wgt id='morphing_basis_vector_3'> +2.4541162e-04 </wgt>
<wgt id='morphing_basis_vector_4'> +1.5793548e-04 </wgt>
<wgt id='morphing_basis_vector_5'> +2.5135832e-04 </wgt>
</rwgt>
</event>
<event>
 4      1 +7.8865000e-07 1.08996800e+03 7.81860800e-03 8.60315800e-02
        2 -1    0    0  501    0 +0.0000000000e+00 +0.0000000000e+00 +8.7085827294e+02 8.7085827294e+02 0.0000000000e+00 0.0000e+00 1.0000e+00
       -2 -1    0    0    0  501 -0.0000000000e+00 -0.0000000000e+00 -3.4105149976e+02 3.4105149976e+02 0.0000000000e+00 0.0000e+00 -1.0000e+00
      -13  1    1    2    0    0 +1.1744909519e+01 -3.3933738859e+02 -2.0907396648e+02 3.9874770176e+02 0.0000000000e+00 0.0000e+00 -1.0000e+00
       13  1    1    2    0    0 -1.1744909519e+01 +3.3933738859e+02 +7.3888073965e+02 8.1316207094e+02 0.0000000000e+00 0.0000e+00 1.0000e+00
<mgrwt>
<rscale>  0 0.10899679E+04</rscale>
<asrwt>0</asrwt>
<pdfrwt beam="1">  1        2 0.13397819E+00 0.10899679E+04</pdfrwt>
<pdfrwt beam="2">  1       -2 0.52469462E-01 0.10899679E+04</pdfrwt>
<totfact> 0.12957118E+02</totfact>
</mgrwt>
<rwgt>
<wgt id='morphing_basis_vector_1'> +1.7133309e-04 </wgt>
<wgt id='morphing_basis_vector_2'> +1.0863346e-04 </wgt>
<wgt id='morphing_basis_vector_3'> +1.6830420e-04 </wgt>
<wgt id='morphing_basis_vector_4'> +1.0568755e-04 </wgt>
<wgt id='morphing_basis_vector_5'> +1.6779143e-04 </wgt>
</rwgt>
</event>
<event>
 4      1 +7.8865000e-07 1.21414500e+03 7.81860800e-03 8.50345500e-02
        2 -1    0    0  501    0 +0.0000000000e+00 +0.0000000000e+00 +9.1764723972e+02 9.1764723972e+02 0.0000000000e+00 0.0000e+00 -1.0000e+00
       -2 -1    0    0    0  501 -0.0000000000e+00 -0.0000000000e+00 -4.0161095157e+02 4.0161095157e+02 0.0000000000e+00 0.0000e+00 1.0000e+00
      -13  1    1    2    0    0 +3.5304291139e+02 -4.9105586760e+02 +2.0091336435e+02 6.3729219544e+02 0.0000000000e+00 0.0000e+00 1.0000e+00
       13  1    1    2    0    0 -3.5304291139e+02 +4.9105586760e+02 +3.1512292379e+02 6.8196599585e+02 0.0000000000e+00 0.0000e+00 -1.0000e+00
<mgrwt>
<rscale>  0 0.12141453E+04</rscale>
<asrwt>0</asrwt>
<pdfrwt beam="1">  1        2 0.14117650E+00 0.12141453E+04</pdfrwt>
<pdfrwt beam="2">  1       -2 0.61786300E-01 0.12141453E+04</pdfrwt>
<totfact> 0.85945119E+01</totfact>
</mgrwt>
<rwgt>
<wgt id='morphing_basis_vector_1'> +2.6378779e-04 </wgt>
<wgt id='morphing_basis_vector_2'> +1.8500604e-04 </wgt>
<wgt id='morphing_basis_vector_3'> +2.6581820e-04 </wgt>
<wgt id='morphing_basis_vector_4'> +1.5559523e-04 </wgt>
<wgt id='morphing_basis_vector_5'> +2.6476439e-04 </wgt>
</rwgt>
</event>
<event>
 4      1 +7.8865000e-07 1.11515000e+03 7.81860800e-03 8.58185300e-02
        2 -1    0    0  501    0 +0.0000000000e+00 +0.0000000000e+00 +2.4766603130e+03 2.4766603130e+03 0.0000000000e+00 0.0000e+00 -1.0000e+00
       -2 -1    0    0    0  501 -0.0000000000e+00 -0.0000000000e+00 -1.2552795685e+02 1.2552795685e+02 0.0000000000e+00 0.0000e+00 1.0000e+00
      -13  1    1    2    0    0 -3.9093287682e+02 +3.6860225291e+02 +8.2793173275e+02 9.8699903198e+02 0.0000000000e+00 0.0000e+00 1.0000e+00
       13  1    1    2    0    0 +3.9093287682e+02 -3.6860225291e+02 +1.5232006234e+03 1.6151892379e+03 0.0000000000e+00 0.0000e+00 -1.0000e+00
<mgrwt>
<rscale>  0 0.11151504E+04</rscale>
<asrwt>0</asrwt>
<pdfrwt beam="1">  1        2 0.38102463E+00 0.11151504E+04</pdfrwt>
<pdfrwt beam="2">  1       -2 0.19311995E-01 0.11151504E+04</pdfrwt>
<totfact> 0.93297238E+01</totfact>
</mgrwt>
<rwgt>
<wgt id='morphing_basis_vector_1'> +1.8892585e-04 </wgt>
<wgt id='morphing_basis_vector_2'> +1.2557858e-04 </wgt>
<wgt id='morphing_basis_vector_3'> +1.8667942e-04 </wgt>
<wgt id='morphing_basis_vector_4'> +1.1270620e-04 </wgt>
<wgt id='morphing_basis_vector_5'> +1.8477030e-04 </wgt>
</rwgt>
</event>
<event>
 4      1 +7.8865000e-07 1.07654200e+03 7.81860800e-03 8.61476000e-02
        2 -1    0    0  501    0 +0.0000000000e+00 +0.0000000000e+00 +3.5511603196e+03 3.5511603196e+03 0.0000000000e+00 0.0000e+00 -1.0000e+00
       -2 -1    0    0    0  501 -0.0000000000e+00 -0.0000000000e+00 -8.1589071605e+01 8.1589071605e+01 0.0000000000e+00 0.0000e+00 1.0000e+00
      -13  1    1    2    0    0 +5.3115601739e+02 -2.9647101507e+01 +1.4579521798e+03 1.5519762318e+03 0.0000000000e+00 0.0000e+00 1.0000e+00
       13  1    1    2    0    0 -5.3115601739e+02 +2.9647101507e+01 +2.0116190683e+03 2.0807731595e+03 0.0000000000e+00 0.0000e+00 -1.0000e+00
<mgrwt>
<rscale>  0 0.10765424E+04</rscale>
<asrwt>0</asrwt>
<pdfrwt beam="1">  1        2 0.54633224E+00 0.10765424E+04</pdfrwt>
<pdfrwt beam="2">  1       -2 0.12552168E-01 0.10765424E+04</pdfrwt>
<totfact> 0.37970808E+01</totfact>
</mgrwt>
<rwgt>
<wgt id='morphing_basis_vector_1'> +1.6680479e-04 </wgt>
<wgt id='morphing_basis_vector_2'> +1.1328537e-04 </wgt>
<wgt id='morphing_basis_vector_3'> +1.6352176e-04 </wgt>
<wgt id='morphing_basis_vector_4'> +9.5013644e-05 </wgt>
<wgt id='morphing_basis_vector_5'> +1.5877404e-04 </wgt>
</rwgt>
</event>
<event>
 4      1 +7.8865000e-07 1.25045700e+03 7.81860800e-03 8.47664800e-02
        2 -1    0    0  501    0 +0.0000000000e+00 +0.0000000000e+00 +2.6276269374e+03 2.6276269374e+03 0.0000000000e+00 0.0000e+00 1.0000e+00
       -2 -1    0    0    0  501 -0.0000000000e+00 -0.0000000000e+00 -1.4876954176e+02 1.4876954176e+02 0.0000000000e+00 0.0000e+00 -1.0000e+00
      -13  1    1    2    0    0 +3.8739621775e+02 +2.6518602659e+02 +3.2259761091e+02 5.6962152066e+02 0.0000000000e+00 0.0000e+00 -1.0000e+00
       13  1    1    2    0    0 -3.8739621775e+02 -2.6518602659e+02 +2.1562597848e+03 2.2067749585e+03 0.0000000000e+00 0.0000e+00 1.0000e+00
<mgrwt>
<rscale>  0 0.12504573E+04</rscale>
<asrwt>0</asrwt>
<pdfrwt beam="1">  1        2 0.40425026E+00 0.12504573E+04</pdfrwt>
<pdfrwt beam="2">  1       -2 0.22887624E-01 0.12504573E+04</pdfrwt>
<totfact> 0.56275665E+01</totfact>
</mgrwt>
<rwgt>
<wgt id='morphing_basis_vector_1'> +2.8792158e-04 </wgt>
<wgt id='morphing_basis_vector_2'> +1.8625052e-04 </wgt>
<wgt id='morphing_basis_vector_3'> +2.9073903e-04 </wgt>
<wgt id='morphing_basis_vector_4'> +1.8848012e-04 </wgt>
<wgt id='morphing_basis_vector_5'> +3.0066492e-04 </wgt>
</rwgt>
</event>
<event>
 4      1 +7.8865000e-07 1.07674500e+03 7.81860800e-03 8.61458400e-02
        2 -1    0    0  501    0 +0.0000000000e+00 +0.0000000000e+00 +2.0496941913e+03 2.0496941913e+03 0.0000000000e+00 0.0000e+00 1.0000e+00
       -2 -1    0    0    0  501 -0.0000000000e+00 -0.0000000000e+00 -1.4140891037e+02 1.4140891037e+02 0.0000000000e+00 0.0000e+00 -1.0000e+00
      -13  1    1    2    0    0 -5.3672255486e+02 +4.1792859254e+01 +9.4351448921e+02 1.0862952340e+03 0.0000000000e+00 0.0000e+00 -1.0000e+00
       13  1    1    2    0    0 +5.3672255486e+02 -4.1792859254e+01 +9.6477079170e+02 1.1048078677e+03 0.0000000000e+00 0.0000e+00 1.0000e+00
<mgrwt>
<rscale>  0 0.10767451E+04</rscale>
<asrwt>0</asrwt>
<pdfrwt beam="1">  1        2 0.31533755E+00 0.10767451E+04</pdfrwt>
<pdfrwt beam="2">  1       -2 0.21755218E-01 0.10767451E+04</pdfrwt>
<totfact> 0.13453726E+02</totfact>
</mgrwt>
<rwgt>
<wgt id='morphing_basis_vector_1'> +1.6926636e-04 </wgt>
<wgt id='morphing_basis_vector_2'> +1.2044171e-04 </wgt>
<wgt id='morphing_basis_vector_3'> +1.6603184e-04 </wgt>
<wgt id='morphing_basis_vector_4'> +9.1292513e-05 </wgt>
<wgt id='morphing_basis_vector_5'> +1.5866181e-04 </wgt>
</rwgt>
</event>
<event>
 4      1 +7.8865000e-07 1.14862500e+03 7.81860800e-03 8.55441500e-02
        2 -1    0    0  501    0 +0.0000000000e+00 +0.0000000000e+00 +2.9410382124e+03 2.9410382124e+03 0.0000000000e+00 0.0000e+00 -1.0000e+00
       -2 -1    0    0    0  501 -0.0000000000e+00 -0.0000000000e+00 -1.1214912447e+02 1.1214912447e+02 0.0000000000e+00 0.0000e+00 1.0000e+00
      -13  1    1    2    0    0 -3.4453928036e+02 -3.0567764624e+02 +5.0255423185e+02 6.8169413601e+02 0.0000000000e+00 0.0000e+00 1.0000e+00
       13  1    1    2    0    0 +3.4453928036e+02 +3.0567764624e+02 +2.3263348560e+03 2.3714932008e+03 0.0000000000e+00 0.0000e+00 -1.0000e+00
<mgrwt>
<rscale>  0 0.11486250E+04</rscale>
<asrwt>0</asrwt>
<pdfrwt beam="1">  1        2 0.45246736E+00 0.11486250E+04</pdfrwt>
<pdfrwt beam="2">  1       -2 0.17253714E-01 0.11486250E+04</pdfrwt>
<totfact> 0.58338393E+01</totfact>
</mgrwt>
<rwgt>
<wgt id='morphing_basis_vector_1'> +2.0897928e-04 </wgt>
<wgt id='morphing_basis_vector_2'> +1.3432551e-04 </wgt>
<wgt id='morphing_basis_vector_3'> +2.0764140e-04 </wgt>
<wgt id='morphing_basis_vector_4'> +1.3140485e-04 </wgt>
<wgt id='morphing_basis_vector_5'> +2.0983407e-04 </wgt>
</rwgt>
</event>
<event>
 4      1 +7.8865000e-07 1.10352600e+03 7.81860800e-03 8.59161500e-02
        2 -1    0    0  501    0 +0.0000000000e+00 +0.0000000000e+00 +9.5390453858e+02 9.5390453858e+02 0.0000000000e+00 0.0000e+00 1.0000e+00
       -2 -1    0    0    0  501 -0.0000000000e+00 -0.0000000000e+00 -3.1915391892e+02 3.1915391892e+02 0.0000000000e+00 0.0000e+00 -1.0000e+00
      -13  1    1    2    0    0 +2.9953070035e+02 -4.3326117839e+02 +1.2778510528e+02 5.4199900580e+02 0.0000000000e+00 0.0000e+00 -1.0000e+00
       13  1    1    2    0    0 -2.9953070035e+02 +4.3326117839e+02 +5.0696551438e+02 7.3105945170e+02 0.0000000000e+00 0.0000e+00 1.0000e+00
<mgrwt>
<rscale>  0 0.11035259E+04</rscale>
<asrwt>0</asrwt>
<pdfrwt beam="1">  1        2 0.14675454E+00 0.11035259E+04</pdfrwt>
<pdfrwt beam="2">  1       -2 0.49100603E-01 0.11035259E+04</pdfrwt>
<totfact> 0.13027064E+02</totfact>
</mgrwt>
<rwgt>
<wgt id='morphing_basis_vector_1'> +1.8136820e-04 </wgt>
<wgt id='morphing_basis_vector_2'> +1.1974859e-04 </wgt>
<wgt id='morphing_basis_vector_3'> +1.7876742e-04 </wgt>
<wgt id='morphing_basis_vector_4'> +1.0825121e-04 </wgt>
<wgt id='morphing_basis_vector_5'> +1.7670796e-04 </wgt>
</rwgt>
</event>
<event>
 4      1 +7.8865000e-07 1.09689000e+03 7.81860800e-03 8.59724300e-02
        2 -1    0    0  501    0 +0.0000000000e+00 +0.0000000000e+00 +2.0532571303e+03 2.0532571303e+03 0.0000000000e+00 0.0000e+00 -1.0000e+00
       -2 -1    0    0    0  501 -0.0000000000e+00 -0.0000000000e+00 -1.4649508074e+02 1.4649508074e+02 0.0000000000e+00 0.0000e+00 1.0000e+00
      -13  1    1    2    0    0 -4.0659868347e+02 +2.6562402566e+02 +4.4243156448e+02 6.5698120342e+02 0.0000000000e+00 0.0000e+00 1.0000e+00
       13  1    1    2    0    0 +4.0659868347e+02 -2.6562402566e+02 +1.4643304851e+03 1.5427710076e+03 0.0000000000e+00 0.0000e+00 -1.0000e+00
<mgrwt>
<rscale>  0 0.10968903E+04</rscale>
<asrwt>0</asrwt>
<pdfrwt beam="1">  1        2 0.31588569E+00 0.10968903E+04</pdfrwt>
<pdfrwt beam="2">  1       -2 0.22537706E-01 0.10968903E+04</pdfrwt>
<totfact> 0.12594426E+02</totfact>
</mgrwt>
<rwgt>
<wgt id='morphing_basis_vector_1'> +1.7625621e-04 </wgt>
<wgt id='morphing_basis_vector_2'> +1.1378896e-04 </wgt>
<wgt id='morphing_basis_vector_3'> +1.7342989e-04 </wgt>
<wgt id='morphing_basis_vector_4'> +1.0724370e-04 </wgt>
<wgt id='morphing_basis_vector_5'> +1.7231781e-04 </wgt>
</rwgt>
</event>
<event>
 4      1 +7.8865000e-07 1.08017700e+03 7.81860800e-03 8.61160200e-02
        2 -1    0    0  501    0 +0.0000000000e+00 +0.0000000000e+00 +1.3883186402e+03 1.3883186402e+03 0.0000000000e+00 0.0000e+00 1.0000e+00
       -2 -1    0    0    0  501 -0.0000000000e+00 -0.0000000000e+00 -2.1010713197e+02 2.1010713197e+02 0.0000000000e+00 0.0000e+00 -1.0000e+00
      -13  1    1    2    0    0 +1.2463030363e+02 -5.2531008048e+02 +6.1066462336e+02 8.1510408873e+02 0.0000000000e+00 0.0000e+00 -1.0000e+00
       13  1    1    2    0    0 -1.2463030363e+02 +5.2531008048e+02 +5.6754688488e+02 7.8332168346e+02 0.0000000000e+00 0.0000e+00 1.0000e+00
<mgrwt>
<rscale>  0 0.10801771E+04</rscale>
<asrwt>0</asrwt>
<pdfrwt beam="1">  1        2 0.21358748E+00 0.10801771E+04</pdfrwt>
<pdfrwt beam="2">  1       -2 0.32324175E-01 0.10801771E+04</pdfrwt>
<totfact> 0.15759900E+02</totfact>
</mgrwt>
<rwgt>
<wgt id='morphing_basis_vector_1'> +1.7210055e-04 </wgt>
<wgt id='morphing_basis_vector_2'> +1.2436821e-04 </wgt>
<wgt id='morphing_basis_vector_3'> +1.6898332e-04 </wgt>
<wgt id='morphing_basis_vector_4'> +9.1225467e-05 </wgt>
<wgt id='morphing_basis_vector_5'> +1.6075865e-04 </wgt>
</rwgt>
</event>
<event>
 4      1 +7.8865000e-07 1.12042900e+03 7.81860800e-03 8.57746100e-02
        2 -1    0    0  501    0 +0.0000000000e+00 +0.0000000000e+00 +7.4834652113e+02 7.4834652113e+02 0.0000000000e+00 0.0000e+00 -1.0000e+00
       -2 -1    0    0    0  501 -0.0000000000e+00 -0.0000000000e+00 -4.1937795192e+02 4.1937795192e+02 0.0000000000e+00 0.0000e+00 1.0000e+00
      -13  1    1    2    0    0 -2.4960433024e+02 +1.2809796287e+02 -3.4088514364e+02 4.4149075972e+02 0.0000000000e+00 0.0000e+00 1.0000e+00
       13  1    1    2    0    0 +2.4960433024e+02 -1.2809796287e+02 +6.6985371284e+02 7.2623371333e+02 0.0000000000e+00 0.0000e+00 -1.0000e+00
<mgrwt>
<rscale>  0 0.11204285E+04</rscale>
<asrwt>0</asrwt>
<pdfrwt beam="1">  1        2 0.11513023E+00 0.11204285E+04</pdfrwt>
<pdfrwt beam="2">  1       -2 0.64519685E-01 0.11204285E+04</pdfrwt>
<totfact> 0.10325628E+02</totfact>
</mgrwt>
<rwgt>
<wgt id='morphing_basis_vector_1'> +1.8990003e-04 </wgt>
<wgt id='morphing_basis_vector_2'> +1.2065438e-04 </wgt>
<wgt id='morphing_basis_vector_3'> +1.8766582e-04 </wgt>
<wgt id='morphing_basis_vector_4'> +1.1897356e-04 </wgt>
<wgt id='morphing_basis_vector_5'> +1.8879225e-04 </wgt>
</rwgt>
</event>
<event>
 4      1 +7.8865000e-07 1.19207200e+03 7.81860800e-03 8.52023700e-02
        2 -1    0    0  501    0 +0.0000000000e+00 +0.0000000000e+00 +1.5815721707e+03 1.5815721707e+03 0.0000000000e+00 0.0000e+00 1.0000e+00
       -2 -1    0    0    0  501 -0.0000000000e+00 -0.0000000000e+00 -2.2462395567e+02 2.2462395567e+02 0.0000000000e+00 0.0000e+00 -1.0000e+00
      -13  1    1    2    0    0 +5.2257534056e+02 -4.5347713854e+01 +1.1073447529e+03 1.2252974347e+03 0.0000000000e+00 0.0000e+00 1.0000e+00
       13  1    1    2    0    0 -5.2257534056e+02 +4.5347713854e+01 +2.4960346218e+02 5.8089869173e+02 0.0000000000e+00 0.0000e+00 -1.0000e+00
<mgrwt>
<rscale>  0 0.11920721E+04</rscale>
<asrwt>0</asrwt>
<pdfrwt beam="1">  1        2 0.24331879E+00 0.11920721E+04</pdfrwt>
<pdfrwt beam="2">  1       -2 0.34557533E-01 0.11920721E+04</pdfrwt>
<totfact> 0.10806731E+02</totfact>
</mgrwt>
<rwgt>
<wgt id='morphing_basis_vector_1'> +2.8052301e-04 </wgt>
<wgt id='morphing_basis_vector_2'> +2.7574309e-04 </wgt>
<wgt id='morphing_basis_vector_3'> +2.8578536e-04 </wgt>
<wgt id='morphing_basis_vector_4'> +8.5131003e-05 </wgt>
<wgt id='morphing_basis_vector_5'> +2.4101645e-04 </wgt>
</rwgt>
</event>
<event>
 4      1 +7.8865000e-07 1.11526300e+03 7.81860800e-03 8.58175900e-02
        2 -1    0    0  501    0 +0.0000000000e+00 +0.0000000000e+00 +3.0775522919e+03 3.0775522919e+03 0.0000000000e+00 0.0000e+00 1.0000e+00
       -2 -1    0    0    0  501 -0.0000000000e+00 -0.0000000000e+00 -1.0103897302e+02 1.0103897302e+02 0.0000000000e+00 0.0000e+00 -1.0000e+00
      -13  1    1    2    0    0 -3.2636373135e+02 +3.5294800890e+02 +6.8280111282e+02 8.3504667043e+02 0.0000000000e+00 0.0000e+00 1.0000e+00
       13  1    1    2    0    0 +3.2636373135e+02 -3.5294800890e+02 +2.2937122060e+03 2.3435445945e+03 0.0000000000e+00 0.0000e+00 -1.0000e+00
<mgrwt>
<rscale>  0 0.11152627E+04</rscale>
<asrwt>0</asrwt>
<pdfrwt beam="1">  1        2 0.47346951E+00 0.11152627E+04</pdfrwt>
<pdfrwt beam="2">  1       -2 0.15544460E-01 0.11152627E+04</pdfrwt>
<totfact> 0.56716380E+01</totfact>
</mgrwt>
<rwgt>
<wgt id='morphing_basis_vector_1'> +1.8738458e-04 </wgt>
<wgt id='morphing_basis_vector_2'> +1.2076854e-04 </wgt>
<wgt id='morphing_basis_vector_3'> +1.8504918e-04 </wgt>
<wgt id='morphing_basis_vector_4'> +1.1541991e-04 </wgt>
<wgt id='morphing_basis_vector_5'> +1.8502284e-04 </wgt>
</rwgt>
</event>
<event>
 4      1 +7.8865000e-07 1.10151900e+03 7.81860800e-03 8.59331300e-02
        2 -1    0    0  501    0 +0.0000000000e+00 +0.0000000000e+00 +2.6416003848e+02 2.6416003848e+02 0.0000000000e+00 0.0000e+00 -1.0000e+00
       -2 -1    0    0    0  501 -0.0000000000e+00 -0.0000000000e+00 -1.1483046362e+03 1.1483046362e+03 0.0000000000e+00 0.0000e+00 1.0000e+00
      -13  1    1    2    0    0 +2.1397846630e+02 +4.7849115089e+02 -2.2523433248e+02 5.7050071871e+02 0.0000000000e+00 0.0000e+00 1.0000e+00
       13  1    1    2    0    0 -2.1397846630e+02 -4.7849115089e+02 -6.5891026519e+02 8.4196395593e+02 0.0000000000e+00 0.0000e+00 -1.0000e+00
<mgrwt>
<rscale>  0 0.11015193E+04</rscale>
<asrwt>0</asrwt>
<pdfrwt beam="1">  1        2 0.40640006E-01 0.11015193E+04</pdfrwt>
<pdfrwt beam="2">  1       -2 0.17666225E+00 0.11015193E+04</pdfrwt>
<totfact> 0.27130957E+01</totfact>
</mgrwt>
<rwgt>
<wgt id='morphing_basis_vector_1'> +1.9633941e-04 </wgt>
<wgt id='morphing_basis_vector_2'> +1.6775711e-04 </wgt>
<wgt id='morphing_basis_vector_3'> +1.9439234e-04 </wgt>
<wgt id='morphing_basis_vector_4'> +8.0818196e-05 </wgt>
<wgt id='morphing_basis_vector_5'> +1.7362508e-04 </wgt>
</rwgt>
</event>
<event>
 4      1 +7.8865000e-07 1.18271000e+03 7.81860800e-03 8.52747000e-02
        2 -1    0    0  501    0 +0.0000000000e+00 +0.0000000000e+00 +3.5923456916e+02 3.5923456916e+02 0.0000000000e+00 0.0000e+00 -1.0000e+00
       -2 -1    0    0    0  501 -0.0000000000e+00 -0.0000000000e+00 -9.7346117575e+02 9.7346117575e+02 0.0000000000e+00 0.0000e+00 1.0000e+00
      -13  1    1    2    0    0 -2.1524033465e+02 -4.2197826221e+02 -7.0599126701e+02 8.5018687624e+02 0.0000000000e+00 0.0000e+00 1.0000e+00
       13  1    1    2    0    0 +2.1524033465e+02 +4.2197826221e+02 +9.1764660420e+01 4.8250886867e+02 0.0000000000e+00 0.0000e+00 -1.0000e+00
<mgrwt>
<rscale>  0 0.11827103E+04</rscale>
<asrwt>0</asrwt>
<pdfrwt beam="1">  1        2 0.55266857E-01 0.11827103E+04</pdfrwt>
<pdfrwt beam="2">  1       -2 0.14976326E+00 0.11827103E+04</pdfrwt>
<totfact> 0.31197760E+01</totfact>
</mgrwt>
<rwgt>
<wgt id='morphing_basis_vector_1'> +2.3333943e-04 </wgt>
<wgt id='morphing_basis_vector_2'> +1.5048476e-04 </wgt>
<wgt id='morphing_basis_vector_3'> +2.3321340e-04 </wgt>
<wgt id='morphing_basis_vector_4'> +1.4872364e-04 </wgt>
<wgt id='morphing_basis_vector_5'> +2.3758261e-04 </wgt>
</rwgt>
</event>
<event>
 4      1 +7.8865000e-07 1.09750800e+03 7.81860800e-03 8.59671700e-02
        2 -1    0    0  501    0 +0.0000000000e+00 +0.0000000000e+00 +8.5013807668e+02 8.5013807668e+02 0.0000000000e+00 0.0000e+00 1.0000e+00
       -2 -1    0    0    0  501 -0.0000000000e+00 -0.0000000000e+00 -3.5421444673e+02 3.5421444673e+02 0.0000000000e+00 0.0000e+00 -1.0000e+00
      -13  1    1    2    0    0 -2.7969965918e+02 -2.4963502158e+02 -1.9177589825e+02 4.2110276477e+02 0.0000000000e+00 0.0000e+00 -1.0000e+00
       13  1    1    2    0    0 +2.7969965918e+02 +2.4963502158e+02 +6.8769952820e+02 7.8324975865e+02 0.0000000000e+00 0.0000e+00 1.0000e+00
<mgrwt>
<rscale>  0 0.10975084E+04</rscale>
<asrwt>0</asrwt>
<pdfrwt beam="1">  1        2 0.13079047E+00 0.10975084E+04</pdfrwt>
<pdfrwt beam="2">  1       -2 0.54494530E-01 0.10975084E+04</pdfrwt>
<totfact> 0.12397953E+02</totfact>
</mgrwt>
<rwgt>
<wgt id='morphing_basis_vector_1'> +1.7587598e-04 </wgt>
<wgt id='morphing_basis_vector_2'> +1.1176876e-04 </wgt>
<wgt id='morphing_basis_vector_3'> +1.7303582e-04 </wgt>
<wgt id='morphing_basis_vector_4'> +1.0873393e-04 </wgt>
<wgt id='morphing_basis_vector_5'> +1.7281305e-04 </wgt>
</rwgt>
</event>
<event>
 4      1 +7.8865000e-07 1.16268400e+03 7.81860800e-03 8.54318400e-02
        2 -1    0    0  501    0 +0.0000000000e+00 +0.0000000000e+00 +1.1636705031e+02 1.1636705031e+02 0.0000000000e+00 0.0000e+00 1.0000e+00
       -2 -1    0    0    0  501 -0.0000000000e+00 -0.0000000000e+00 -2.9042449072e+03 2.9042449072e+03 0.0000000000e+00 0.0000e+00 -1.0000e+00
      -13  1    1    2    0    0 -4.2914305009e+02 -3.0547790802e+01 -2.4096784533e+03 2.4477841354e+03 0.0000000000e+00 0.0000e+00 -1.0000e+00
       13  1    1    2    0    0 +4.2914305009e+02 +3.0547790802e+01 -3.7819940358e+02 5.7282782215e+02 0.0000000000e+00 0.0000e+00 1.0000e+00
<mgrwt>
<rscale>  0 0.11626838E+04</rscale>
<asrwt>0</asrwt>
<pdfrwt beam="1">  1        2 0.17902623E-01 0.11626838E+04</pdfrwt>
<pdfrwt beam="2">  1       -2 0.44680691E+00 0.11626838E+04</pdfrwt>
<totfact> 0.10478564E+00</totfact>
</mgrwt>
<rwgt>
<wgt id='morphing_basis_vector_1'> +2.1856274e-04 </wgt>
<wgt id='morphing_basis_vector_2'> +1.4017354e-04 </wgt>
<wgt id='morphing_basis_vector_3'> +2.1768095e-04 </wgt>
<wgt id='morphing_basis_vector_4'> +1.3872113e-04 </wgt>
<wgt id='morphing_basis_vector_5'> +2.2099699e-04 </wgt>
</rwgt>
</event>
<event>
 4      1 +7.8865000e-07 1.15613400e+03 7.81860800e-03 8.54839500e-02
        2 -1    0    0  501    0 +0.0000000000e+00 +0.0000000000e+00 +1.0185123930e+03 1.0185123930e+03 0.0000000000e+00 0.0000e+00 -1.0000e+00
       -2 -1    0    0    0  501 -0.0000000000e+00 -0.0000000000e+00 -3.2808771457e+02 3.2808771457e+02 0.0000000000e+00 0.0000e+00 1.0000e+00
      -13  1    1    2    0    0 -4.3993764823e+01 +1.6942671714e+02 -2.9647659324e+02 3.4429527177e+02 0.0000000000e+00 0.0000e+00 1.0000e+00
       13  1    1    2    0    0 +4.3993764823e+01 -1.6942671714e+02 +9.8690127167e+02 1.0023048358e+03 0.0000000000e+00 0.0000e+00 -1.0000e+00
<mgrwt>
<rscale>  0 0.11561339E+04</rscale>
<asrwt>0</asrwt>
<pdfrwt beam="1">  1        2 0.15669421E+00 0.11561339E+04</pdfrwt>
<pdfrwt beam="2">  1       -2 0.50475034E-01 0.11561339E+04</pdfrwt>
<totfact> 0.11201432E+02</totfact>
</mgrwt>
<rwgt>
<wgt id='morphing_basis_vector_1'> +2.1363773e-04 </wgt>
<wgt id='morphing_basis_vector_2'> +1.3616428e-04 </wgt>
<wgt id='morphing_basis_vector_3'> +2.1250073e-04 </wgt>
<wgt id='morphing_basis_vector_4'> +1.3598218e-04 </wgt>
<wgt id='morphing_basis_vector_5'> +2.1579016e-04 </wgt>
</rwgt>
</event>
<event>
 4      1 +7.8865000e-07 1.10410100e+03 7.81860800e-03 8.59112900e-02
        2 -1    0    0  501    0 +0.0000000000e+00 +0.0000000000e+00 +1.4050817879e+03 1.4050817879e+03 0.0000000000e+00 0.0000e+00 1.0000e+00
       -2 -1    0    0    0  501 -0.0000000000e+00 -0.0000000000e+00 -2.1689812159e+02 2.1689812159e+02 0.0000000000e+00 0.0000e+00 -1.0000e+00
      -13  1    1    2    0    0 -1.8457431624e+02 -4.9572192256e+02 +3.6203902538e+02 6.4099934370e+02 0.0000000000e+00 0.0000e+00 -1.0000e+00
       13  1    1    2    0    0 +1.8457431624e+02 +4.9572192256e+02 +8.2614464094e+02 9.8098056580e+02 0.0000000000e+00 0.0000e+00 1.0000e+00
<mgrwt>
<rscale>  0 0.11041007E+04</rscale>
<asrwt>0</asrwt>
<pdfrwt beam="1">  1        2 0.21616642E+00 0.11041007E+04</pdfrwt>
<pdfrwt beam="2">  1       -2 0.33368943E-01 0.11041007E+04</pdfrwt>
<totfact> 0.14540074E+02</totfact>
</mgrwt>
<rwgt>
<wgt id='morphing_basis_vector_1'> +1.8182571e-04 </wgt>
<wgt id='morphing_basis_vector_2'> +1.2030141e-04 </wgt>
<wgt id='morphing_basis_vector_3'> +1.7924596e-04 </wgt>
<wgt id='morphing_basis_vector_4'> +1.0832163e-04 </wgt>
<wgt id='morphing_basis_vector_5'> +1.7709097e-04 </wgt>
</rwgt>
</event>
<event>
 4      1 +7.8865000e-07 1.21495700e+03 7.81860800e-03 8.50284500e-02
        2 -1    0    0  501    0 +0.0000000000e+00 +0.0000000000e+00 +5.3175935939e+02 5.3175935939e+02 0.0000000000e+00 0.0000e+00 1.0000e+00
       -2 -1    0    0    0  501 -0.0000000000e+00 -0.0000000000e+00 -6.9397957203e+02 6.9397957203e+02 0.0000000000e+00 0.0000e+00 -1.0000e+00
      -13  1    1    2    0    0 +1.4642235663e+02 +5.2821298374e+02 -3.4531514620e+02 6.4783563726e+02 0.0000000000e+00 0.0000e+00 -1.0000e+00
       13  1    1    2    0    0 -1.4642235663e+02 -5.2821298374e+02 +1.8309493356e+02 5.7790329417e+02 0.0000000000e+00 0.0000e+00 1.0000e+00
<mgrwt>
<rscale>  0 0.12149570E+04</rscale>
<asrwt>0</asrwt>
<pdfrwt beam="1">  1        2 0.81809132E-01 0.12149570E+04</pdfrwt>
<pdfrwt beam="2">  1       -2 0.10676609E+00 0.12149570E+04</pdfrwt>
<totfact> 0.48997930E+01</totfact>
</mgrwt>
<rwgt>
<wgt id='morphing_basis_vector_1'> +2.5929094e-04 </wgt>
<wgt id='morphing_basis_vector_2'> +1.6997737e-04 </wgt>
<wgt id='morphing_basis_vector_3'> +2.6062281e-04 </wgt>
<wgt id='morphing_basis_vector_4'> +1.6494744e-04 </wgt>
<wgt id='morphing_basis_vector_5'> +2.6612155e-04 </wgt>
</rwgt>
</event>
<event>
 4      1 +7.8865000e-07 1.09870700e+03 7.81860800e-03 8.59569800e-02
        2 -1    0    0  501    0 +0.0000000000e+00 +0.0000000000e+00 +1.3356614494e+03 1.3356614494e+03 0.0000000000e+00 0.0000e+00 1.0000e+00
       -2 -1    0    0    0  501 -0.0000000000e+00 -0.0000000000e+00 -2.2594754584e+02 2.2594754584e+02 0.0000000000e+00 0.0000e+00 -1.0000e+00
      -13  1    1    2    0    0 +2.6937306704e+02 -1.4013588860e+02 +1.2055483529e+03 1.2432002042e+03 0.0000000000e+00 0.0000e+00 1.0000e+00
       13  1    1    2    0    0 -2.6937306704e+02 +1.4013588860e+02 -9.5834449357e+01 3.1840879103e+02 0.0000000000e+00 0.0000e+00 -1.0000e+00
<mgrwt>
<rscale>  0 0.10987073E+04</rscale>
<asrwt>0</asrwt>
<pdfrwt beam="1">  1        2 0.20548637E+00 0.10987073E+04</pdfrwt>
<pdfrwt beam="2">  1       -2 0.34761162E-01 0.10987073E+04</pdfrwt>
<totfact> 0.14786285E+02</totfact>
</mgrwt>
<rwgt>
<wgt id='morphing_basis_vector_1'> +2.3665732e-04 </wgt>
<wgt id='morphing_basis_vector_2'> +2.9332597e-04 </wgt>
<wgt id='morphing_basis_vector_3'> +2.3631071e-04 </wgt>
<wgt id='morphing_basis_vector_4'> +1.0796681e-05 </wgt>
<wgt id='morphing_basis_vector_5'> +1.6729505e-04 </wgt>
</rwgt>
</event>
<event>
 4      1 +7.8865000e-07 1.15588300e+03 7.81860800e-03 8.54859600e-02
        2 -1    0    0  501    0 +0.0000000000e+00 +0.0000000000e+00 +1.1478113399e+03 1.1478113399e+03 0.0000000000e+00 0.0000e+00 -1.0000e+00
       -2 -1    0    0    0  501 -0.0000000000e+00 -0.0000000000e+00 -2.9100266659e+02 2.9100266659e+02 0.0000000000e+00 0.0000e+00 1.0000e+00
      -13  1    1    2    0    0 +3.5164949550e+02 -4.5795311525e+02 +4.5983921564e+02 7.3812636296e+02 0.0000000000e+00 0.0000e+00 1.0000e+00
       13  1    1    2    0    0 -3.5164949550e+02 +4.5795311525e+02 +3.9696945763e+02 7.0068764350e+02 0.0000000000e+00 0.0000e+00 -1.0000e+00
<mgrwt>
<rscale>  0 0.11558826E+04</rscale>
<asrwt>0</asrwt>
<pdfrwt beam="1">  1        2 0.17658636E+00 0.11558826E+04</pdfrwt>
<pdfrwt beam="2">  1       -2 0.44769641E-01 0.11558826E+04</pdfrwt>
<totfact> 0.11807713E+02</totfact>
</mgrwt>
<rwgt>
<wgt id='morphing_basis_vector_1'> +2.2244766e-04 </wgt>
<wgt id='morphing_basis_vector_2'> +1.6307996e-04 </wgt>
<wgt id='morphing_basis_vector_3'> +2.2215267e-04 </wgt>
<wgt id='morphing_basis_vector_4'> +1.2072238e-04 </wgt>
<wgt id='morphing_basis_vector_5'> +2.1458583e-04 </wgt>
</rwgt>
</event>
<event>
 4      1 +7.8865000e-07 1.13419400e+03 7.81860800e-03 8.56612200e-02
        2 -1    0    0  501    0 +0.0000000000e+00 +0.0000000000e+00 +9.2703771848e+02 9.2703771848e+02 0.0000000000e+00 0.0000e+00 -1.0000e+00
       -2 -1    0    0    0  501 -0.0000000000e+00 -0.0000000000e+00 -3.4691036298e+02 3.4691036298e+02 0.0000000000e+00 0.0000e+00 1.0000e+00
      -13  1    1    2    0    0 +3.8664694586e+02 -1.8945775639e+02 -1.2447696843e+02 4.4820153711e+02 0.0000000000e+00 0.0000e+00 1.0000e+00
       13  1    1    2    0    0 -3.8664694586e+02 +1.8945775639e+02 +7.0460432393e+02 8.2574654435e+02 0.0000000000e+00 0.0000e+00 -1.0000e+00
<mgrwt>
<rscale>  0 0.11341940E+04</rscale>
<asrwt>0</asrwt>
<pdfrwt beam="1">  1        2 0.14262119E+00 0.11341940E+04</pdfrwt>
<pdfrwt beam="2">  1       -2 0.53370826E-01 0.11341940E+04</pdfrwt>
<totfact> 0.11473824E+02</totfact>
</mgrwt>
<rwgt>
<wgt id='morphing_basis_vector_1'> +1.9912490e-04 </wgt>
<wgt id='morphing_basis_vector_2'> +1.2744785e-04 </wgt>
<wgt id='morphing_basis_vector_3'> +1.9731654e-04 </wgt>
<wgt id='morphing_basis_vector_4'> +1.2478865e-04 </wgt>
<wgt id='morphing_basis_vector_5'> +1.9885178e-04 </wgt>
</rwgt>
</event>
<event>
 4      1 +7.8865000e-07 1.11973700e+03 7.81860800e-03 8.57803500e-02
        2 -1    0    0  501    0 +0.0000000000e+00 +0.0000000000e+00 +3.1362339807e+03 3.1362339807e+03 0.0000000000e+00 0.0000e+00 1.0000e+00
       -2 -1    0    0    0  501 -0.0000000000e+00 -0.0000000000e+00 -9.9945512707e+01 9.9945512707e+01 0.0000000000e+00 0.0000e+00 -1.0000e+00
      -13  1    1    2    0    0 -2.0787630989e+02 -4.1453167062e+02 +6.1153135608e+02 7.6747616617e+02 0.0000000000e+00 0.0000e+00 -1.0000e+00
       13  1    1    2    0    0 +2.0787630989e+02 +4.1453167062e+02 +2.4247571119e+03 2.4687033272e+03 0.0000000000e+00 0.0000e+00 1.0000e+00
<mgrwt>
<rscale>  0 0.11197366E+04</rscale>
<asrwt>0</asrwt>
<pdfrwt beam="1">  1        2 0.48249746E+00 0.11197366E+04</pdfrwt>
<pdfrwt beam="2">  1       -2 0.15376235E-01 0.11197366E+04</pdfrwt>
<totfact> 0.52803911E+01</totfact>
</mgrwt>
<rwgt>
<wgt id='morphing_basis_vector_1'> +1.9001565e-04 </wgt>
<wgt id='morphing_basis_vector_2'> +1.2203884e-04 </wgt>
<wgt id='morphing_basis_vector_3'> +1.8779611e-04 </wgt>
<wgt id='morphing_basis_vector_4'> +1.1774143e-04 </wgt>
<wgt id='morphing_basis_vector_5'> +1.8823512e-04 </wgt>
</rwgt>
</event>
<event>
 4      1 +7.8865000e-07 1.20954300e+03 7.81860800e-03 8.50692300e-02
        2 -1    0    0  501    0 +0.0000000000e+00 +0.0000000000e+00 +8.6299998128e+02 8.6299998128e+02 0.0000000000e+00 0.0000e+00 -1.0000e+00
       -2 -1    0    0    0  501 -0.0000000000e+00 -0.0000000000e+00 -4.2381070080e+02 4.2381070080e+02 0.0000000000e+00 0.0000e+00 1.0000e+00
      -13  1    1    2    0    0 +6.0463006176e+02 -8.7336631051e+00 +2.2995525260e+02 6.4694142444e+02 0.0000000000e+00 0.0000e+00 1.0000e+00
       13  1    1    2    0    0 -6.0463006176e+02 +8.7336631051e+00 +2.0923402787e+02 6.3986925764e+02 0.0000000000e+00 0.0000e+00 -1.0000e+00
<mgrwt>
<rscale>  0 0.12095431E+04</rscale>
<asrwt>0</asrwt>
<pdfrwt beam="1">  1        2 0.13276923E+00 0.12095431E+04</pdfrwt>
<pdfrwt beam="2">  1       -2 0.65201647E-01 0.12095431E+04</pdfrwt>
<totfact> 0.83505933E+01</totfact>
</mgrwt>
<rwgt>
<wgt id='morphing_basis_vector_1'> +2.6305561e-04 </wgt>
<wgt id='morphing_basis_vector_2'> +1.9141166e-04 </wgt>
<wgt id='morphing_basis_vector_3'> +2.6527545e-04 </wgt>
<wgt id='morphing_basis_vector_4'> +1.4790022e-04 </wgt>
<wgt id='morphing_basis_vector_5'> +2.6019326e-04 </wgt>
</rwgt>
</event>
<event>
 4      1 +7.8865000e-07 1.10064600e+03 7.81860800e-03 8.59405300e-02
        2 -1    0    0  501    0 +0.0000000000e+00 +0.0000000000e+00 +7.8326241766e+02 7.8326241766e+02 0.0000000000e+00 0.0000e+00 1.0000e+00
       -2 -1    0    0    0  501 -0.0000000000e+00 -0.0000000000e+00 -3.8665880541e+02 3.8665880541e+02 0.0000000000e+00 0.0000e+00 -1.0000e+00
      -13  1    1    2    0    0 -4.1469959673e+02 +8.4580213173e+01 -1.7558407183e+02 4.5821319740e+02 0.0000000000e+00 0.0000e+00 -1.0000e+00
       13  1    1    2    0    0 +4.1469959673e+02 -8.4580213173e+01 +5.7218768408e+02 7.1170802567e+02 0.0000000000e+00 0.0000e+00 1.0000e+00
<mgrwt>
<rscale>  0 0.11006458E+04</rscale>
<asrwt>0</asrwt>
<pdfrwt beam="1">  1        2 0.12050191E+00 0.11006458E+04</pdfrwt>
<pdfrwt beam="2">  1       -2 0.59485970E-01 0.11006458E+04</pdfrwt>
<totfact> 0.11544049E+02</totfact>
</mgrwt>
<rwgt>
<wgt id='morphing_basis_vector_1'> +1.7793544e-04 </wgt>
<wgt id='morphing_basis_vector_2'> +1.1352221e-04 </wgt>
<wgt id='morphing_basis_vector_3'> +1.7518248e-04 </wgt>
<wgt id='morphing_basis_vector_4'> +1.0978665e-04 </wgt>
<wgt id='morphing_basis_vector_5'> +1.7491949e-04 </wgt>
</rwgt>
</event>
<event>
 4      1 +7.8865000e-07 1.07325000e+03 7.81860800e-03 8.61763200e-02
        2 -1    0    0  501    0 +0.0000000000e+00 +0.0000000000e+00 +1.0711914342e+03 1.0711914342e+03 0.0000000000e+00 0.0000e+00 -1.0000e+00
       -2 -1    0    0    0  501 -0.0000000000e+00 -0.0000000000e+00 -2.6882828303e+02 2.6882828303e+02 0.0000000000e+00 0.0000e+00 1.0000e+00
      -13  1    1    2    0    0 -3.8179274850e+02 -8.4307786964e+01 -5.7727523683e+01 3.9522901303e+02 0.0000000000e+00 0.0000e+00 1.0000e+00
       13  1    1    2    0    0 +3.8179274850e+02 +8.4307786964e+01 +8.6009067486e+02 9.4479070420e+02 0.0000000000e+00 0.0000e+00 -1.0000e+00
<mgrwt>
<rscale>  0 0.10732503E+04</rscale>
<asrwt>0</asrwt>
<pdfrwt beam="1">  1        2 0.16479868E+00 0.10732503E+04</pdfrwt>
<pdfrwt beam="2">  1       -2 0.41358198E-01 0.10732503E+04</pdfrwt>
<totfact> 0.15337829E+02</totfact>
</mgrwt>
<rwgt>
<wgt id='morphing_basis_vector_1'> +1.6184639e-04 </wgt>
<wgt id='morphing_basis_vector_2'> +1.0271580e-04 </wgt>
<wgt id='morphing_basis_vector_3'> +1.5843325e-04 </wgt>
<wgt id='morphing_basis_vector_4'> +9.8729582e-05 </wgt>
<wgt id='morphing_basis_vector_5'> +1.5701341e-04 </wgt>
</rwgt>
</event>
<event>
 4      1 +7.8865000e-07 1.08683600e+03 7.81860800e-03 8.60584900e-02
        2 -1    0    0  501    0 +0.0000000000e+00 +0.0000000000e+00 +2.3363784936e+03 2.3363784936e+03 0.0000000000e+00 0.0000e+00 -1.0000e+00
       -2 -1    0    0    0  501 -0.0000000000e+00 -0.0000000000e+00 -1.2639360067e+02 1.2639360067e+02 0.0000000000e+00 0.0000e+00 1.0000e+00
      -13  1    1    2    0    0 +4.0565934985e+02 -1.5157712371e+02 +3.6110828016e+02 5.6385665071e+02 0.0000000000e+00 0.0000e+00 1.0000e+00
       13  1    1    2    0    0 -4.0565934985e+02 +1.5157712371e+02 +1.8488766128e+03 1.8989154436e+03 0.0000000000e+00 0.0000e+00 -1.0000e+00
<mgrwt>
<rscale>  0 0.10868363E+04</rscale>
<asrwt>0</asrwt>
<pdfrwt beam="1">  1        2 0.35944281E+00 0.10868363E+04</pdfrwt>
<pdfrwt beam="2">  1       -2 0.19445171E-01 0.10868363E+04</pdfrwt>
<totfact> 0.11159831E+02</totfact>
</mgrwt>
<rwgt>
<wgt id='morphing_basis_vector_1'> +1.6980695e-04 </wgt>
<wgt id='morphing_basis_vector_2'> +1.0835814e-04 </wgt>
<wgt id='morphing_basis_vector_3'> +1.6671187e-04 </wgt>
<wgt id='morphing_basis_vector_4'> +1.0389705e-04 </wgt>
<wgt id='morphing_basis_vector_5'> +1.6570299e-04 </wgt>
</rwgt>
</event>
<event>
 4      1 +7.8865000e-07 1.15091400e+03 7.81860800e-03 8.55257500e-02
        2 -1    0    0  501    0 +0.0000000000e+00 +0.0000000000e+00 +1.0458861373e+03 1.0458861373e+03 0.0000000000e+00 0.0000e+00 -1.0000e+00
       -2 -1    0    0    0  501 -0.0000000000e+00 -0.0000000000e+00 -3.1662231109e+02 3.1662231109e+02 0.0000000000e+00 0.0000e+00 1.0000e+00
      -13  1    1    2    0    0 +2.7123339349e+02 -8.2601704016e+01 -2.2819188552e+02 3.6395347486e+02 0.0000000000e+00 0.0000e+00 1.0000e+00
       13  1    1    2    0    0 -2.7123339349e+02 +8.2601704016e+01 +9.5745571168e+02 9.9855497349e+02 0.0000000000e+00 0.0000e+00 -1.0000e+00
<mgrwt>
<rscale>  0 0.11509142E+04</rscale>
<asrwt>0</asrwt>
<pdfrwt beam="1">  1        2 0.16090556E+00 0.11509142E+04</pdfrwt>
<pdfrwt beam="2">  1       -2 0.48711125E-01 0.11509142E+04</pdfrwt>
<totfact> 0.11556628E+02</totfact>
</mgrwt>
<rwgt>
<wgt id='morphing_basis_vector_1'> +2.1006300e-04 </wgt>
<wgt id='morphing_basis_vector_2'> +1.3389756e-04 </wgt>
<wgt id='morphing_basis_vector_3'> +2.0875675e-04 </wgt>
<wgt id='morphing_basis_vector_4'> +1.3333995e-04 </wgt>
<wgt id='morphing_basis_vector_5'> +2.1167337e-04 </wgt>
</rwgt>
</event>
<event>
 4      1 +7.8865000e-07 1.26104000e+03 7.81860800e-03 8.46901500e-02
        2 -1    0    0  501    0 +0.0000000000e+00 +0.0000000000e+00 +1.6257206435e+03 1.6257206435e+03 0.0000000000e+00 0.0000e+00 -1.0000e+00
       -2 -1    0    0    0  501 -0.0000000000e+00 -0.0000000000e+00 -2.4454107442e+02 2.4454107442e+02 0.0000000000e+00 0.0000e+00 1.0000e+00
      -13  1    1    2    0    0 -3.6015459871e+02 +8.6775453509e+01 -6.6107918432e+01 3.7631312917e+02 0.0000000000e+00 0.0000e+00 1.0000e+00
       13  1    1    2    0    0 +3.6015459871e+02 -8.6775453509e+01 +1.4472874875e+03 1.4939485887e+03 0.0000000000e+00 0.0000e+00 -1.0000e+00
<mgrwt>
<rscale>  0 0.12610400E+04</rscale>
<asrwt>0</asrwt>
<pdfrwt beam="1">  1        2 0.25011086E+00 0.12610400E+04</pdfrwt>
<pdfrwt beam="2">  1       -2 0.37621705E-01 0.12610400E+04</pdfrwt>
<totfact> 0.86970034E+01</totfact>
</mgrwt>
<rwgt>
<wgt id='morphing_basis_vector_1'> +2.9693134e-04 </wgt>
<wgt id='morphing_basis_vector_2'> +1.9139407e-04 </wgt>
<wgt id='morphing_basis_vector_3'> +3.0022187e-04 </wgt>
<wgt id='morphing_basis_vector_4'> +1.9590696e-04 </wgt>
<wgt id='morphing_basis_vector_5'> +3.1157086e-04 </wgt>
</rwgt>
</event>
<event>
 4      1 +7.8865000e-07 1.19589300e+03 7.81860800e-03 8.51730500e-02
        2 -1    0    0  501    0 +0.0000000000e+00 +0.0000000000e+00 +1.3775551306e+03 1.3775551306e+03 0.0000000000e+00 0.0000e+00 -1.0000e+00
       -2 -1    0    0    0  501 -0.0000000000e+00 -0.0000000000e+00 -2.5954676926e+02 2.5954676926e+02 0.0000000000e+00 0.0000e+00 1.0000e+00
      -13  1    1    2    0    0 +2.5525643986e+02 -5.3174938968e+02 +6.9331858235e+02 9.1027683709e+02 0.0000000000e+00 0.0000e+00 1.0000e+00
       13  1    1    2    0    0 -2.5525643986e+02 +5.3174938968e+02 +4.2468977902e+02 7.2682506281e+02 0.0000000000e+00 0.0000e+00 -1.0000e+00
<mgrwt>
<rscale>  0 0.11958929E+04</rscale>
<asrwt>0</asrwt>
<pdfrwt beam="1">  1        2 0.21193155E+00 0.11958929E+04</pdfrwt>
<pdfrwt beam="2">  1       -2 0.39930273E-01 0.11958929E+04</pdfrwt>
<totfact> 0.10770960E+02</totfact>
</mgrwt>
<rwgt>
<wgt id='morphing_basis_vector_1'> +2.5826279e-04 </wgt>
<wgt id='morphing_basis_vector_2'> +2.0200395e-04 </wgt>
<wgt id='morphing_basis_vector_3'> +2.6057178e-04 </wgt>
<wgt id='morphing_basis_vector_4'> +1.3025982e-04 </wgt>
<wgt id='morphing_basis_vector_5'> +2.4727349e-04 </wgt>
</rwgt>
</event>
<event>
 4      1 +7.8865000e-07 1.20032800e+03 7.81860800e-03 8.51391600e-02
        2 -1    0    0  501    0 +0.0000000000e+00 +0.0000000000e+00 +9.1469210343e+02 9.1469210343e+02 0.0000000000e+00 0.0000e+00 1.0000e+00
       -2 -1    0    0    0  501 -0.0000000000e+00 -0.0000000000e+00 -3.9379017215e+02 3.9379017215e+02 0.0000000000e+00 0.0000e+00 -1.0000e+00
      -13  1    1    2    0    0 -3.7389656398e+02 +4.6538812638e+02 +1.9314631338e+02 6.2744740585e+02 0.0000000000e+00 0.0000e+00 -1.0000e+00
       13  1    1    2    0    0 +3.7389656398e+02 -4.6538812638e+02 +3.2775561790e+02 6.8103486974e+02 0.0000000000e+00 0.0000e+00 1.0000e+00
<mgrwt>
<rscale>  0 0.12003279E+04</rscale>
<asrwt>0</asrwt>
<pdfrwt beam="1">  1        2 0.14072186E+00 0.12003279E+04</pdfrwt>
<pdfrwt beam="2">  1       -2 0.60583104E-01 0.12003279E+04</pdfrwt>
<totfact> 0.89985140E+01</totfact>
</mgrwt>
<rwgt>
<wgt id='morphing_basis_vector_1'> +2.5221503e-04 </wgt>
<wgt id='morphing_basis_vector_2'> +1.7580554e-04 </wgt>
<wgt id='morphing_basis_vector_3'> +2.5350870e-04 </wgt>
<wgt id='morphing_basis_vector_4'> +1.4893293e-04 </wgt>
<wgt id='morphing_basis_vector_5'> +2.5230262e-04 </wgt>
</rwgt>
</event>
<event>
 4      1 +7.8865000e-07 1.16608000e+03 7.81860800e-03 8.54049600e-02
        2 -1    0    0  501    0 +0.0000000000e+00 +0.0000000000e+00 +1.6290958577e+03 1.6290958577e+03 0.0000000000e+00 0.0000e+00 1.0000e+00
       -2 -1    0    0    0  501 -0.0000000000e+00 -0.0000000000e+00 -2.0866519152e+02 2.0866519152e+02 0.0000000000e+00 0.0000e+00 -1.0000e+00
      -13  1    1    2    0    0 -2.3829739302e+02 +3.8236993564e+02 +1.2934333523e+03 1.3696577135e+03 0.0000000000e+00 0.0000e+00 1.0000e+00
       13  1    1    2    0    0 +2.3829739302e+02 -3.8236993564e+02 +1.2699731387e+02 4.6810333574e+02 0.0000000000e+00 0.0000e+00 -1.0000e+00
<mgrwt>
<rscale>  0 0.11660799E+04</rscale>
<asrwt>0</asrwt>
<pdfrwt beam="1">  1        2 0.25063012E+00 0.11660799E+04</pdfrwt>
<pdfrwt beam="2">  1       -2 0.32102338E-01 0.11660799E+04</pdfrwt>
<totfact> 0.11637030E+02</totfact>
</mgrwt>
<rwgt>
<wgt id='morphing_basis_vector_1'> +2.7623643e-04 </wgt>
<wgt id='morphing_basis_vector_2'> +3.0795098e-04 </wgt>
<wgt id='morphing_basis_vector_3'> +2.8119299e-04 </wgt>
<wgt id='morphing_basis_vector_4'> +4.6952093e-05 </wgt>
<wgt id='morphing_basis_vector_5'> +2.1751158e-04 </wgt>
</rwgt>
</event>
<event>
 4      1 +7.8865000e-07 1.07914800e+03 7.81860800e-03 8.61249500e-02
        2 -1    0    0  501    0 +0.0000000000e+00 +0.0000000000e+00 +1.9909238133e+03 1.9909238133e+03 0.0000000000e+00 0.0000e+00 -1.0000e+00
       -2 -1    0    0    0  501 -0.0000000000e+00 -0.0000000000e+00 -1.4623362314e+02 1.4623362314e+02 0.0000000000e+00 0.0000e+00 1.0000e+00
      -13  1    1    2    0    0 -4.5663189271e+02 -3.7430280342e+01 +3.5792314892e+02 5.8139718941e+02 0.0000000000e+00 0.0000e+00 1.0000e+00
       13  1    1    2    0    0 +4.5663189271e+02 +3.7430280342e+01 +1.4867670412e+03 1.5557602470e+03 0.0000000000e+00 0.0000e+00 -1.0000e+00
<mgrwt>
<rscale>  0 0.10791478E+04</rscale>
<asrwt>0</asrwt>
<pdfrwt beam="1">  1        2 0.30629595E+00 0.10791478E+04</pdfrwt>
<pdfrwt beam="2">  1       -2 0.22497482E-01 0.10791478E+04</pdfrwt>
<totfact> 0.13706983E+02</totfact>
</mgrwt>
<rwgt>
<wgt id='morphing_basis_vector_1'> +1.6558292e-04 </wgt>
<wgt id='morphing_basis_vector_2'> +1.0609365e-04 </wgt>
<wgt id='morphing_basis_vector_3'> +1.6231092e-04 </wgt>
<wgt id='morphing_basis_vector_4'> +1.0043511e-04 </wgt>
<wgt id='morphing_basis_vector_5'> +1.6071076e-04 </wgt>
</rwgt>
</event>
<event>
 4      1 +7.8865000e-07 1.25552400e+03 7.81860800e-03 8.47298300e-02
        2 -1    0    0  501    0 +0.0000000000e+00 +0.0000000000e+00 +7.0834267415e+02 7.0834267415e+02 0.0000000000e+00 0.0000e+00 -1.0000e+00
       -2 -1    0    0    0  501 -0.0000000000e+00 -0.0000000000e+00 -5.5634827819e+02 5.5634827819e+02 0.0000000000e+00 0.0000e+00 1.0000e+00
      -13  1    1    2    0    0 +2.5887627887e+02 +3.5810667603e+02 -3.7315963393e+02 5.7836444529e+02 0.0000000000e+00 0.0000e+00 1.0000e+00
       13  1    1    2    0    0 -2.5887627887e+02 -3.5810667603e+02 +5.2515402989e+02 6.8632650705e+02 0.0000000000e+00 0.0000e+00 -1.0000e+00
<mgrwt>
<rscale>  0 0.12555242E+04</rscale>
<asrwt>0</asrwt>
<pdfrwt beam="1">  1        2 0.10897580E+00 0.12555242E+04</pdfrwt>
<pdfrwt beam="2">  1       -2 0.85592043E-01 0.12555242E+04</pdfrwt>
<totfact> 0.58830558E+01</totfact>
</mgrwt>
<rwgt>
<wgt id='morphing_basis_vector_1'> +2.9222819e-04 </wgt>
<wgt id='morphing_basis_vector_2'> +1.8875800e-04 </wgt>
<wgt id='morphing_basis_vector_3'> +2.9527392e-04 </wgt>
<wgt id='morphing_basis_vector_4'> +1.9197573e-04 </wgt>
<wgt id='morphing_basis_vector_5'> +3.0584839e-04 </wgt>
</rwgt>
</event>
<event>
 4      1 +7.8865000e-07 1.11150400e+03 7.81860800e-03 8.58490200e-02
        2 -1    0    0  501    0 +0.0000000000e+00 +0.0000000000e+00 +1.8023628432e+03 1.8023628432e+03 0.0000000000e+00 0.0000e+00 1.0000e+00
       -2 -1    0    0    0  501 -0.0000000000e+00 -0.0000000000e+00 -1.7136416516e+02 1.7136416516e+02 0.0000000000e+00 0.0000e+00 -1.0000e+00
      -13  1    1    2    0    0 -5.4241081218e+02 -6.9928122101e+01 +6.4006180438e+02 8.4188986504e+02 0.0000000000e+00 0.0000e+00 -1.0000e+00
       13  1    1    2    0    0 +5.4241081218e+02 +6.9928122101e+01 +9.9093687367e+02 1.1318371433e+03 0.0000000000e+00 0.0000e+00 1.0000e+00
<mgrwt>
<rscale>  0 0.11115042E+04</rscale>
<asrwt>0</asrwt>
<pdfrwt beam="1">  1        2 0.27728658E+00 0.11115042E+04</pdfrwt>
<pdfrwt beam="2">  1       -2 0.26363719E-01 0.11115042E+04</pdfrwt>
<totfact> 0.13258355E+02</totfact>
</mgrwt>
<rwgt>
<wgt id='morphing_basis_vector_1'> +1.8764846e-04 </wgt>
<wgt id='morphing_basis_vector_2'> +1.2709890e-04 </wgt>
<wgt id='morphing_basis_vector_3'> +1.8534794e-04 </wgt>
<wgt id='morphing_basis_vector_4'> +1.0944954e-04 </wgt>
<wgt id='morphing_basis_vector_5'> +1.8209348e-04 </wgt>
</rwgt>
</event>
<event>
 4      1 +7.8865000e-07 1.10047100e+03 7.81860800e-03 8.59420100e-02
        2 -1    0    0  501    0 +0.0000000000e+00 +0.0000000000e+00 +6.2687847741e+02 6.2687847741e+02 0.0000000000e+00 0.0000e+00 -1.0000e+00
       -2 -1    0    0    0  501 -0.0000000000e+00 -0.0000000000e+00 -4.8296260831e+02 4.8296260831e+02 0.0000000000e+00 0.0000e+00 1.0000e+00
      -13  1    1    2    0    0 +2.3276138561e+01 -4.3496145048e+02 -2.6709758787e+02 5.1095436535e+02 0.0000000000e+00 0.0000e+00 1.0000e+00
       13  1    1    2    0    0 -2.3276138561e+01 +4.3496145048e+02 +4.1101345697e+02 5.9888672037e+02 0.0000000000e+00 0.0000e+00 -1.0000e+00
<mgrwt>
<rscale>  0 0.11004706E+04</rscale>
<asrwt>0</asrwt>
<pdfrwt beam="1">  1        2 0.96442843E-01 0.11004706E+04</pdfrwt>
<pdfrwt beam="2">  1       -2 0.74301940E-01 0.11004706E+04</pdfrwt>
<totfact> 0.94932102E+01</totfact>
</mgrwt>
<rwgt>
<wgt id='morphing_basis_vector_1'> +1.7789816e-04 </wgt>
<wgt id='morphing_basis_vector_2'> +1.1365969e-04 </wgt>
<wgt id='morphing_basis_vector_3'> +1.7514362e-04 </wgt>
<wgt id='morphing_basis_vector_4'> +1.0959928e-04 </wgt>
<wgt id='morphing_basis_vector_5'> +1.7479306e-04 </wgt>
</rwgt>
</event>
<event>
 4      1 +7.8865000e-07 1.23213500e+03 7.81860800e-03 8.49005300e-02
        2 -1    0    0  501    0 +0.0000000000e+00 +0.0000000000e+00 +5.1084989799e+02 5.1084989799e+02 0.0000000000e+00 0.0000e+00 1.0000e+00
       -2 -1    0    0    0  501 -0.0000000000e+00 -0.0000000000e+00 -7.4295666123e+02 7.4295666123e+02 0.0000000000e+00 0.0000e+00 -1.0000e+00
      -13  1    1    2    0    0 -1.6391137511e+02 -5.4002339767e+02 -3.6747623810e+02 6.7344709851e+02 0.0000000000e+00 0.0000e+00 -1.0000e+00
       13  1    1    2    0    0 +1.6391137511e+02 +5.4002339767e+02 +1.3536947486e+02 5.8035946072e+02 0.0000000000e+00 0.0000e+00 1.0000e+00
<mgrwt>
<rscale>  0 0.12321353E+04</rscale>
<asrwt>0</asrwt>
<pdfrwt beam="1">  1        2 0.78592292E-01 0.12321353E+04</pdfrwt>
<pdfrwt beam="2">  1       -2 0.11430102E+00 0.12321353E+04</pdfrwt>
<totfact> 0.43175032E+01</totfact>
</mgrwt>
<rwgt>
<wgt id='morphing_basis_vector_1'> +2.7372644e-04 </wgt>
<wgt id='morphing_basis_vector_2'> +1.8031631e-04 </wgt>
<wgt id='morphing_basis_vector_3'> +2.7589623e-04 </wgt>
<wgt id='morphing_basis_vector_4'> +1.7453923e-04 </wgt>
<wgt id='morphing_basis_vector_5'> +2.8234479e-04 </wgt>
</rwgt>
</event>
<event>
 4      1 +7.8865000e-07 1.09162100e+03 7.81860800e-03 8.60174100e-02
        2 -1    0    0  501    0 +0.0000000000e+00 +0.0000000000e+00 +1.5286614782e+03 1.5286614782e+03 0.0000000000e+00 0.0000e+00 1.0000e+00
       -2 -1    0    0    0  501 -0.0000000000e+00 -0.0000000000e+00 -1.9488242592e+02 1.9488242592e+02 0.0000000000e+00 0.0000e+00 -1.0000e+00
      -13  1    1    2    0    0 -3.0583181259e+02 +4.4778474267e+02 +5.6873186509e+02 7.8581181445e+02 0.0000000000e+00 0.0000e+00 -1.0000e+00
       13  1    1    2    0    0 +3.0583181259e+02 -4.4778474267e+02 +7.6504718720e+02 9.3773208968e+02 0.0000000000e+00 0.0000e+00 1.0000e+00
<mgrwt>
<rscale>  0 0.10916213E+04</rscale>
<asrwt>0</asrwt>
<pdfrwt beam="1">  1        2 0.23517868E+00 0.10916213E+04</pdfrwt>
<pdfrwt beam="2">  1       -2 0.29981913E-01 0.10916213E+04</pdfrwt>
<totfact> 0.15026240E+02</totfact>
</mgrwt>
<rwgt>
<wgt id='morphing_basis_vector_1'> +1.7626538e-04 </wgt>
<wgt id='morphing_basis_vector_2'> +1.2120967e-04 </wgt>
<wgt id='morphing_basis_vector_3'> +1.7341065e-04 </wgt>
<wgt id='morphing_basis_vector_4'> +9.9909506e-05 </wgt>
<wgt id='morphing_basis_vector_5'> +1.6847111e-04 </wgt>
</rwgt>
</event>
<event>
 4      1 +7.8865000e-07 1.27361900e+03 7.81860800e-03 8.46004300e-02
        2 -1    0    0  501    0 +0.0000000000e+00 +0.0000000000e+00 +7.1168430623e+02 7.1168430623e+02 0.0000000000e+00 0.0000e+00 -1.0000e+00
       -2 -1    0    0    0  501 -0.0000000000e+00 -0.0000000000e+00 -5.6981218769e+02 5.6981218769e+02 0.0000000000e+00 0.0000e+00 1.0000e+00
      -13  1    1    2    0    0 -2.4067100282e+02 -2.8969249348e+02 -4.4573984142e+02 5.8354800882e+02 0.0000000000e+00 0.0000e+00 1.0000e+00
       13  1    1    2    0    0 +2.4067100282e+02 +2.8969249348e+02 +5.8761195995e+02 6.9794848510e+02 0.0000000000e+00 0.0000e+00 -1.0000e+00
<mgrwt>
<rscale>  0 0.12736191E+04</rscale>
<asrwt>0</asrwt>
<pdfrwt beam="1">  1        2 0.10948989E+00 0.12736191E+04</pdfrwt>
<pdfrwt beam="2">  1       -2 0.87663414E-01 0.12736191E+04</pdfrwt>
<totfact> 0.55260963E+01</totfact>
</mgrwt>
<rwgt>
<wgt id='morphing_basis_vector_1'> +3.0836351e-04 </wgt>
<wgt id='morphing_basis_vector_2'> +1.9897758e-04 </wgt>
<wgt id='morphing_basis_vector_3'> +3.1231537e-04 </wgt>
<wgt id='morphing_basis_vector_4'> +2.0423056e-04 </wgt>
<wgt id='morphing_basis_vector_5'> +3.2485640e-04 </wgt>
</rwgt>
</event>
<event>
 4      1 +7.8865000e-07 1.15766100e+03 7.81860800e-03 8.54717700e-02
        2 -1    0    0  501    0 +0.0000000000e+00 +0.0000000000e+00 +3.3981643971e+02 3.3981643971e+02 0.0000000000e+00 0.0000e+00 -1.0000e+00
       -2 -1    0    0    0  501 -0.0000000000e+00 -0.0000000000e+00 -9.8595838489e+02 9.8595838489e+02 0.0000000000e+00 0.0000e+00 1.0000e+00
      -13  1    1    2    0    0 +2.4438097219e+02 -3.7469878459e+02 -7.4373201579e+02 8.6790468950e+02 0.0000000000e+00 0.0000e+00 1.0000e+00
       13  1    1    2    0    0 -2.4438097219e+02 +3.7469878459e+02 +9.7590070613e+01 4.5787013511e+02 0.0000000000e+00 0.0000e+00 -1.0000e+00
<mgrwt>
<rscale>  0 0.11576612E+04</rscale>
<asrwt>0</asrwt>
<pdfrwt beam="1">  1        2 0.52279453E-01 0.11576612E+04</pdfrwt>
<pdfrwt beam="2">  1       -2 0.15168590E+00 0.11576612E+04</pdfrwt>
<totfact> 0.32081552E+01</totfact>
</mgrwt>
<rwgt>
<wgt id='morphing_basis_vector_1'> +2.1512422e-04 </wgt>
<wgt id='morphing_basis_vector_2'> +1.3813188e-04 </wgt>
<wgt id='morphing_basis_vector_3'> +2.1407899e-04 </wgt>
<wgt id='morphing_basis_vector_4'> +1.3603472e-04 </wgt>
<wgt id='morphing_basis_vector_5'> +2.1695742e-04 </wgt>
</rwgt>
</event>
<event>
 4      1 +7.8865000e-07 1.14582400e+03 7.81860800e-03 8.55667300e-02
        2 -1    0    0  501    0 +0.0000000000e+00 +0.0000000000e+00 +2.2237860330e+03 2.2237860330e+03 0.0000000000e+00 0.0000e+00 1.0000e+00
       -2 -1    0    0    0  501 -0.0000000000e+00 -0.0000000000e+00 -1.4759882977e+02 1.4759882977e+02 0.0000000000e+00 0.0000e+00 -1.0000e+00
      -13  1    1    2    0    0 -2.9326506692e+02 +3.9783307792e+02 +1.6377484076e+03 1.7107002672e+03 0.0000000000e+00 0.0000e+00 -1.0000e+00
       13  1    1    2    0    0 +2.9326506692e+02 -3.9783307792e+02 +4.3843879555e+02 6.6068459556e+02 0.0000000000e+00 0.0000e+00 1.0000e+00
<mgrwt>
<rscale>  0 0.11458241E+04</rscale>
<asrwt>0</asrwt>
<pdfrwt beam="1">  1        2 0.34212091E+00 0.11458241E+04</pdfrwt>
<pdfrwt beam="2">  1       -2 0.22707514E-01 0.11458241E+04</pdfrwt>
<totfact> 0.99222807E+01</totfact>
</mgrwt>
<rwgt>
<wgt id='morphing_basis_vector_1'> +2.4466137e-04 </wgt>
<wgt id='morphing_basis_vector_2'> +2.4619966e-04 </wgt>
<wgt id='morphing_basis_vector_3'> +2.4645422e-04 </wgt>
<wgt id='morphing_basis_vector_4'> +6.7010288e-05 </wgt>
<wgt id='morphing_basis_vector_5'> +2.0350109e-04 </wgt>
</rwgt>
</event>
<event>
 4      1 +7.8865000e-07 1.26367700e+03 7.81860800e-03 8.46712500e-02
        2 -1    0    0  501    0 +0.0000000000e+00 +0.0000000000e+00 +4.4160111116e+02 4.4160111116e+02 0.0000000000e+00 0.0000e+00 1.0000e+00
       -2 -1    0    0    0  501 -0.0000000000e+00 -0.0000000000e+00 -9.0402851953e+02 9.0402851953e+02 0.0000000000e+00 0.0000e+00 -1.0000e+00
      -13  1    1    2    0    0 -4.7286303769e+02 +4.1284847935e+02 -1.5459848690e+02 6.4648589425e+02 0.0000000000e+00 0.0000e+00 1.0000e+00
       13  1    1    2    0    0 +4.7286303769e+02 -4.1284847935e+02 -3.0782892146e+02 6.9914373644e+02 0.0000000000e+00 0.0000e+00 -1.0000e+00
<mgrwt>
<rscale>  0 0.12636772E+04</rscale>
<asrwt>0</asrwt>
<pdfrwt beam="1">  1        2 0.67938632E-01 0.12636772E+04</pdfrwt>
<pdfrwt beam="2">  1       -2 0.13908131E+00 0.12636772E+04</pdfrwt>
<totfact> 0.30214902E+01</totfact>
</mgrwt>
<rwgt>
<wgt id='morphing_basis_vector_1'> +3.1533484e-04 </wgt>
<wgt id='morphing_basis_vector_2'> +2.4103459e-04 </wgt>
<wgt id='morphing_basis_vector_3'> +3.2162971e-04 </wgt>
<wgt id='morphing_basis_vector_4'> +1.6947949e-04 </wgt>
<wgt id='morphing_basis_vector_5'> +3.1236328e-04 </wgt>
</rwgt>
</event>
<event>
 4      1 +7.8865000e-07 1.25237300e+03 7.81860800e-03 8.47526000e-02
        2 -1    0    0  501    0 +0.0000000000e+00 +0.0000000000e+00 +6.8779935830e+02 6.8779935830e+02 0.0000000000e+00 0.0000e+00 -1.0000e+00
       -2 -1    0    0    0  501 -0.0000000000e+00 -0.0000000000e+00 -5.7009270558e+02 5.7009270558e+02 0.0000000000e+00 0.0000e+00 1.0000e+00
      -13  1    1    2    0    0 -1.9413554148e+02 +1.3323167755e+02 -5.2393659939e+02 5.7441174130e+02 0.0000000000e+00 0.0000e+00 1.0000e+00
       13  1    1    2    0    0 +1.9413554148e+02 -1.3323167755e+02 +6.4164325211e+02 6.8348032257e+02 0.0000000000e+00 0.0000e+00 -1.0000e+00
<mgrwt>
<rscale>  0 0.12523728E+04</rscale>
<asrwt>0</asrwt>
<pdfrwt beam="1">  1        2 0.10581529E+00 0.12523728E+04</pdfrwt>
<pdfrwt beam="2">  1       -2 0.87706571E-01 0.12523728E+04</pdfrwt>
<totfact> 0.57652731E+01</totfact>
</mgrwt>
<rwgt>
<wgt id='morphing_basis_vector_1'> +2.8913565e-04 </wgt>
<wgt id='morphing_basis_vector_2'> +1.8597109e-04 </wgt>
<wgt id='morphing_basis_vector_3'> +2.9196925e-04 </wgt>
<wgt id='morphing_basis_vector_4'> +1.9051011e-04 </wgt>
<wgt id='morphing_basis_vector_5'> +3.0266629e-04 </wgt>
</rwgt>
</event>
<event>
 4      1 +7.8865000e-07 1.16525800e+03 7.81860800e-03 8.54114500e-02
        2 -1    0    0  501    0 +0.0000000000e+00 +0.0000000000e+00 +1.1721069118e+03 1.1721069118e+03 0.0000000000e+00 0.0000e+00 -1.0000e+00
       -2 -1    0    0    0  501 -0.0000000000e+00 -0.0000000000e+00 -2.8961225955e+02 2.8961225955e+02 0.0000000000e+00 0.0000e+00 1.0000e+00
      -13  1    1    2    0    0 +5.3480689877e+02 -2.2849852509e-02 +7.3122690475e+02 9.0593112637e+02 0.0000000000e+00 0.0000e+00 1.0000e+00
       13  1    1    2    0    0 -5.3480689877e+02 +2.2849852509e-02 +1.5126774748e+02 5.5578804496e+02 0.0000000000e+00 0.0000e+00 -1.0000e+00
<mgrwt>
<rscale>  0 0.11652580E+04</rscale>
<asrwt>0</asrwt>
<pdfrwt beam="1">  1        2 0.18032414E+00 0.11652580E+04</pdfrwt>
<pdfrwt beam="2">  1       -2 0.44555733E-01 0.11652580E+04</pdfrwt>
<totfact> 0.11521690E+02</totfact>
</mgrwt>
<rwgt>
<wgt id='morphing_basis_vector_1'> +2.4984204e-04 </wgt>
<wgt id='morphing_basis_vector_2'> +2.2995187e-04 </wgt>
<wgt id='morphing_basis_vector_3'> +2.5207767e-04 </wgt>
<wgt id='morphing_basis_vector_4'> +9.0216531e-05 </wgt>
<wgt id='morphing_basis_vector_5'> +2.1975957e-04 </wgt>
</rwgt>
</event>
<event>
 4      1 +7.8865000e-07 1.21753900e+03 7.81860800e-03 8.50090800e-02
        2 -1    0    0  501    0 +0.0000000000e+00 +0.0000000000e+00 +1.2865550308e+03 1.2865550308e+03 0.0000000000e+00 0.0000e+00 1.0000e+00
       -2 -1    0    0    0  501 -0.0000000000e+00 -0.0000000000e+00 -2.8805619216e+02 2.8805619216e+02 0.0000000000e+00 0.0000e+00 -1.0000e+00
      -13  1    1    2    0    0 -5.0925953399e+01 +5.2845424965e+02 +1.1398658927e+02 5.4300118714e+02 0.0000000000e+00 0.0000e+00 -1.0000e+00
       13  1    1    2    0    0 +5.0925953399e+01 -5.2845424965e+02 +8.8451224938e+02 1.0316100358e+03 0.0000000000e+00 0.0000e+00 1.0000e+00
<mgrwt>
<rscale>  0 0.12175387E+04</rscale>
<asrwt>0</asrwt>
<pdfrwt beam="1">  1        2 0.19793154E+00 0.12175387E+04</pdfrwt>
<pdfrwt beam="2">  1       -2 0.44316338E-01 0.12175387E+04</pdfrwt>
<totfact> 0.99522616E+01</totfact>
</mgrwt>
<rwgt>
<wgt id='morphing_basis_vector_1'> +2.6097637e-04 </wgt>
<wgt id='morphing_basis_vector_2'> +1.7016282e-04 </wgt>
<wgt id='morphing_basis_vector_3'> +2.6236538e-04 </wgt>
<wgt id='morphing_basis_vector_4'> +1.6713425e-04 </wgt>
<wgt id='morphing_basis_vector_5'> +2.6856743e-04 </wgt>
</rwgt>
</event>
<event>
 4      1 +7.8865000e-07 1.23273500e+03 7.81860800e-03 8.48961000e-02
        2 -1    0    0  501    0 +0.0000000000e+00 +0.0000000000e+00 +1.4604890478e+03 1.4604890478e+03 0.0000000000e+00 0.0000e+00 1.0000e+00
       -2 -1    0    0    0  501 -0.0000000000e+00 -0.0000000000e+00 -2.6012454751e+02 2.6012454751e+02 0.0000000000e+00 0.0000e+00 -1.0000e+00
      -13  1    1    2    0    0 +4.2091051278e+02 +2.3584069074e+02 +6.4813309353e+01 4.8681336901e+02 0.0000000000e+00 0.0000e+00 -1.0000e+00
       13  1    1    2    0    0 -4.2091051278e+02 -2.3584069074e+02 +1.1355511909e+03 1.2338002263e+03 0.0000000000e+00 0.0000e+00 1.0000e+00
<mgrwt>
<rscale>  0 0.12327353E+04</rscale>
<asrwt>0</asrwt>
<pdfrwt beam="1">  1        2 0.22469062E+00 0.12327353E+04</pdfrwt>
<pdfrwt beam="2">  1       -2 0.40019162E-01 0.12327353E+04</pdfrwt>
<totfact> 0.96069451E+01</totfact>
</mgrwt>
<rwgt>
<wgt id='morphing_basis_vector_1'> +2.7286627e-04 </wgt>
<wgt id='morphing_basis_vector_2'> +1.7655911e-04 </wgt>
<wgt id='morphing_basis_vector_3'> +2.7485100e-04 </wgt>
<wgt id='morphing_basis_vector_4'> +1.7727010e-04 </wgt>
<wgt id='morphing_basis_vector_5'> +2.8308851e-04 </wgt>
</rwgt>
</event>
<event>
 4      1 +7.8865000e-07 1.18690800e+03 7.81860800e-03 8.52421900e-02
        2 -1    0    0  501    0 +0.0000000000e+00 +0.0000000000e+00 +1.9856606370e+02 1.9856606370e+02 0.0000000000e+00 0.0000e+00 -1.0000e+00
       -2 -1    0    0    0  501 -0.0000000000e+00 -0.0000000000e+00 -1.7736533161e+03 1.7736533161e+03 0.0000000000e+00 0.0000e+00 1.0000e+00
      -13  1    1    2    0    0 +4.7453181964e+02 -2.3081109660e+02 -1.2387442914e+03 1.3464552089e+03 0.0000000000e+00 0.0000e+00 1.0000e+00
       13  1    1    2    0    0 -4.7453181964e+02 +2.3081109660e+02 -3.3634296104e+02 6.2576417092e+02 0.0000000000e+00 0.0000e+00 -1.0000e+00
<mgrwt>
<rscale>  0 0.11869075E+04</rscale>
<asrwt>0</asrwt>
<pdfrwt beam="1">  1        2 0.30548624E-01 0.11869075E+04</pdfrwt>
<pdfrwt beam="2">  1       -2 0.27286975E+00 0.11869075E+04</pdfrwt>
<totfact> 0.77292650E+00</totfact>
</mgrwt>
<rwgt>
<wgt id='morphing_basis_vector_1'> +2.3717974e-04 </wgt>
<wgt id='morphing_basis_vector_2'> +1.5466633e-04 </wgt>
<wgt id='morphing_basis_vector_3'> +2.3730004e-04 </wgt>
<wgt id='morphing_basis_vector_4'> +1.4977761e-04 </wgt>
<wgt id='morphing_basis_vector_5'> +2.4109675e-04 </wgt>
</rwgt>
</event>
<event>
 4      1 +7.8865000e-07 1.13123800e+03 7.81860800e-03 8.56854300e-02
        2 -1    0    0  501    0 +0.0000000000e+00 +0.0000000000e+00 +3.9937021431e+02 3.9937021431e+02 0.0000000000e+00 0.0000e+00 1.0000e+00
       -2 -1    0    0    0  501 -0.0000000000e+00 -0.0000000000e+00 -8.0107357860e+02 8.0107357860e+02 0.0000000000e+00 0.0000e+00 -1.0000e+00
      -13  1    1    2    0    0 +4.0712112671e+02 +2.6945152329e+02 -5.0393464371e+02 7.0164225953e+02 0.0000000000e+00 0.0000e+00 -1.0000e+00
       13  1    1    2    0    0 -4.0712112671e+02 -2.6945152329e+02 +1.0223127942e+02 4.9880153339e+02 0.0000000000e+00 0.0000e+00 1.0000e+00
<mgrwt>
<rscale>  0 0.11312381E+04</rscale>
<asrwt>0</asrwt>
<pdfrwt beam="1">  1        2 0.61441572E-01 0.11312381E+04</pdfrwt>
<pdfrwt beam="2">  1       -2 0.12324209E+00 0.11312381E+04</pdfrwt>
<totfact> 0.47336329E+01</totfact>
</mgrwt>
<rwgt>
<wgt id='morphing_basis_vector_1'> +1.9767155e-04 </wgt>
<wgt id='morphing_basis_vector_2'> +1.2763947e-04 </wgt>
<wgt id='morphing_basis_vector_3'> +1.9580889e-04 </wgt>
<wgt id='morphing_basis_vector_4'> +1.2259737e-04 </wgt>
<wgt id='morphing_basis_vector_5'> +1.9659869e-04 </wgt>
</rwgt>
</event>
<event>
 4      1 +7.8865000e-07 1.19526700e+03 7.81860800e-03 8.51778400e-02
        2 -1    0    0  501    0 +0.0000000000e+00 +0.0000000000e+00 +2.0982882686e+03 2.0982882686e+03 0.0000000000e+00 0.0000e+00 1.0000e+00
       -2 -1    0    0    0  501 -0.0000000000e+00 -0.0000000000e+00 -1.7021761094e+02 1.7021761094e+02 0.0000000000e+00 0.0000e+00 -1.0000e+00
      -13  1    1    2    0    0 -3.9220190198e+02 +3.9260881454e+02 +5.4305217432e+02 7.7644682832e+02 0.0000000000e+00 0.0000e+00 -1.0000e+00
       13  1    1    2    0    0 +3.9220190198e+02 -3.9260881454e+02 +1.3850184834e+03 1.4920590512e+03 0.0000000000e+00 0.0000e+00 1.0000e+00
<mgrwt>
<rscale>  0 0.11952667E+04</rscale>
<asrwt>0</asrwt>
<pdfrwt beam="1">  1        2 0.32281356E+00 0.11952667E+04</pdfrwt>
<pdfrwt beam="2">  1       -2 0.26187326E-01 0.11952667E+04</pdfrwt>
<totfact> 0.91128687E+01</totfact>
</mgrwt>
<rwgt>
<wgt id='morphing_basis_vector_1'> +2.4422698e-04 </wgt>
<wgt id='morphing_basis_vector_2'> +1.6096243e-04 </wgt>
<wgt id='morphing_basis_vector_3'> +2.4477153e-04 </wgt>
<wgt id='morphing_basis_vector_4'> +1.5313345e-04 </wgt>
<wgt id='morphing_basis_vector_5'> +2.4829366e-04 </wgt>
</rwgt>
</event>
<event>
 4      1 +7.8865000e-07 1.14969000e+03 7.81860800e-03 8.55355800e-02
        2 -1    0    0  501    0 +0.0000000000e+00 +0.0000000000e+00 +4.6765274243e+02 4.6765274243e+02 0.0000000000e+00 0.0000e+00 -1.0000e+00
       -2 -1    0    0    0  501 -0.0000000000e+00 -0.0000000000e+00 -7.0660732696e+02 7.0660732696e+02 0.0000000000e+00 0.0000e+00 1.0000e+00
      -13  1    1    2    0    0 -4.9381756510e+02 -1.0291143656e+02 -4.0105038298e+02 6.4442839871e+02 0.0000000000e+00 0.0000e+00 1.0000e+00
       13  1    1    2    0    0 +4.9381756510e+02 +1.0291143656e+02 +1.6209579845e+02 5.2983167068e+02 0.0000000000e+00 0.0000e+00 -1.0000e+00
<mgrwt>
<rscale>  0 0.11496901E+04</rscale>
<asrwt>0</asrwt>
<pdfrwt beam="1">  1        2 0.71946576E-01 0.11496901E+04</pdfrwt>
<pdfrwt beam="2">  1       -2 0.10870882E+00 0.11496901E+04</pdfrwt>
<totfact> 0.54530836E+01</totfact>
</mgrwt>
<rwgt>
<wgt id='morphing_basis_vector_1'> +2.1020224e-04 </wgt>
<wgt id='morphing_basis_vector_2'> +1.3629175e-04 </wgt>
<wgt id='morphing_basis_vector_3'> +2.0894342e-04 </wgt>
<wgt id='morphing_basis_vector_4'> +1.3109491e-04 </wgt>
<wgt id='morphing_basis_vector_5'> +2.1060841e-04 </wgt>
</rwgt>
</event>
<event>
 4      1 +7.8865000e-07 1.15912500e+03 7.81860800e-03 8.54601100e-02
        2 -1    0    0  501    0 +0.0000000000e+00 +0.0000000000e+00 +6.0510890640e+02 6.0510890640e+02 0.0000000000e+00 0.0000e+00 -1.0000e+00
       -2 -1    0    0    0  501 -0.0000000000e+00 -0.0000000000e+00 -5.5509472010e+02 5.5509472010e+02 0.0000000000e+00 0.0000e+00 1.0000e+00
      -13  1    1    2    0    0 +5.6720362705e+02 -1.1830959742e+02 +3.8272486294e+01 5.8067365929e+02 0.0000000000e+00 0.0000e+00 1.0000e+00
       13  1    1    2    0    0 -5.6720362705e+02 +1.1830959742e+02 +1.1741700011e+01 5.7952996722e+02 0.0000000000e+00 0.0000e+00 -1.0000e+00
<mgrwt>
<rscale>  0 0.11591251E+04</rscale>
<asrwt>0</asrwt>
<pdfrwt beam="1">  1        2 0.93093679E-01 0.11591251E+04</pdfrwt>
<pdfrwt beam="2">  1       -2 0.85399187E-01 0.11591251E+04</pdfrwt>
<totfact> 0.72014987E+01</totfact>
</mgrwt>
<rwgt>
<wgt id='morphing_basis_vector_1'> +2.2415940e-04 </wgt>
<wgt id='morphing_basis_vector_2'> +1.6290186e-04 </wgt>
<wgt id='morphing_basis_vector_3'> +2.2394504e-04 </wgt>
<wgt id='morphing_basis_vector_4'> +1.2325585e-04 </wgt>
<wgt id='morphing_basis_vector_5'> +2.1722736e-04 </wgt>
</rwgt>
</event>
<event>
 4      1 +7.8865000e-07 1.16723000e+03 7.81860800e-03 8.53958700e-02
        2 -1    0    0  501    0 +0.0000000000e+00 +0.0000000000e+00 +1.1633064114e+03 1.1633064114e+03 0.0000000000e+00 0.0000e+00 -1.0000e+00
       -2 -1    0    0    0  501 -0.0000000000e+00 -0.0000000000e+00 -2.9279193551e+02 2.9279193551e+02 0.0000000000e+00 0.0000e+00 1.0000e+00
      -13  1    1    2    0    0 +2.6248206639e+02 -1.9753828737e+02 -1.6650035785e+02 3.6829414782e+02 0.0000000000e+00 0.0000e+00 1.0000e+00
       13  1    1    2    0    0 -2.6248206639e+02 +1.9753828737e+02 +1.0370148337e+03 1.0878041991e+03 0.0000000000e+00 0.0000e+00 -1.0000e+00
<mgrwt>
<rscale>  0 0.11672305E+04</rscale>
<asrwt>0</asrwt>
<pdfrwt beam="1">  1        2 0.17897021E+00 0.11672305E+04</pdfrwt>
<pdfrwt beam="2">  1       -2 0.45044914E-01 0.11672305E+04</pdfrwt>
<totfact> 0.11417253E+02</totfact>
</mgrwt>
<rwgt>
<wgt id='morphing_basis_vector_1'> +2.2154512e-04 </wgt>
<wgt id='morphing_basis_vector_2'> +1.4154092e-04 </wgt>
<wgt id='morphing_basis_vector_3'> +2.2079633e-04 </wgt>
<wgt id='morphing_basis_vector_4'> +1.4146835e-04 </wgt>
<wgt id='morphing_basis_vector_5'> +2.2472008e-04 </wgt>
</rwgt>
</event>
<event>
 4      1 +7.8865000e-07 1.15803200e+03 7.81860800e-03 8.54688100e-02
        2 -1    0    0  501    0 +0.0000000000e+00 +0.0000000000e+00 +9.3220617233e+02 9.3220617233e+02 0.0000000000e+00 0.0000e+00 -1.0000e+00
       -2 -1    0    0    0  501 -0.0000000000e+00 -0.0000000000e+00 -3.5964095406e+02 3.5964095406e+02 0.0000000000e+00 0.0000e+00 1.0000e+00
      -13  1    1    2    0    0 +2.7410766038e+02 +3.8498042779e+02 -8.6910744673e+01 4.8051890369e+02 0.0000000000e+00 0.0000e+00 1.0000e+00
       13  1    1    2    0    0 -2.7410766038e+02 -3.8498042779e+02 +6.5947596294e+02 8.1132822271e+02 0.0000000000e+00 0.0000e+00 -1.0000e+00
<mgrwt>
<rscale>  0 0.11580320E+04</rscale>
<asrwt>0</asrwt>
<pdfrwt beam="1">  1        2 0.14341633E+00 0.11580320E+04</pdfrwt>
<pdfrwt beam="2">  1       -2 0.55329378E-01 0.11580320E+04</pdfrwt>
<totfact> 0.10575568E+02</totfact>
</mgrwt>
<rwgt>
<wgt id='morphing_basis_vector_1'> +2.1556733e-04 </wgt>
<wgt id='morphing_basis_vector_2'> +1.3885547e-04 </wgt>
<wgt id='morphing_basis_vector_3'> +2.1455247e-04 </wgt>
<wgt id='morphing_basis_vector_4'> +1.3591019e-04 </wgt>
<wgt id='morphing_basis_vector_5'> +2.1723238e-04 </wgt>
</rwgt>
</event>
<event>
 4      1 +7.8865000e-07 1.08978400e+03 7.81860800e-03 8.60331600e-02
        2 -1    0    0  501    0 +0.0000000000e+00 +0.0000000000e+00 +8.7546098981e+02 8.7546098981e+02 0.0000000000e+00 0.0000e+00 -1.0000e+00
       -2 -1    0    0    0  501 -0.0000000000e+00 -0.0000000000e+00 -3.3914405186e+02 3.3914405186e+02 0.0000000000e+00 0.0000e+00 1.0000e+00
      -13  1    1    2    0    0 +4.0600182075e+02 +2.0238044607e+01 -1.3625168605e+02 4.2873252601e+02 0.0000000000e+00 0.0000e+00 1.0000e+00
       13  1    1    2    0    0 -4.0600182075e+02 -2.0238044607e+01 +6.7256862400e+02 7.8587251567e+02 0.0000000000e+00 0.0000e+00 -1.0000e+00
<mgrwt>
<rscale>  0 0.10897842E+04</rscale>
<asrwt>0</asrwt>
<pdfrwt beam="1">  1        2 0.13468631E+00 0.10897842E+04</pdfrwt>
<pdfrwt beam="2">  1       -2 0.52176008E-01 0.10897842E+04</pdfrwt>
<totfact> 0.13010588E+02</totfact>
</mgrwt>
<rwgt>
<wgt id='morphing_basis_vector_1'> +1.7139630e-04 </wgt>
<wgt id='morphing_basis_vector_2'> +1.0907901e-04 </wgt>
<wgt id='morphing_basis_vector_3'> +1.6836844e-04 </wgt>
<wgt id='morphing_basis_vector_4'> +1.0533223e-04 </wgt>
<wgt id='morphing_basis_vector_5'> +1.6765240e-04 </wgt>
</rwgt>
</event>
<event>
 4      1 +7.8865000e-07 1.16136300e+03 7.81860800e-03 8.54423100e-02
        2 -1    0    0  501    0 +0.0000000000e+00 +0.0000000000e+00 +8.6209507259e+02 8.6209507259e+02 0.0000000000e+00 0.0000e+00 -1.0000e+00
       -2 -1    0    0    0  501 -0.0000000000e+00 -0.0000000000e+00 -3.9112998025e+02 3.9112998025e+02 0.0000000000e+00 0.0000e+00 1.0000e+00
      -13  1    1    2    0    0 +7.1891408155e+01 -2.9975187790e+02 -2.9555178949e+02 4.2704850209e+02 0.0000000000e+00 0.0000e+00 1.0000e+00
       13  1    1    2    0    0 -7.1891408155e+01 +2.9975187790e+02 +7.6651688183e+02 8.2617655075e+02 0.0000000000e+00 0.0000e+00 -1.0000e+00
<mgrwt>
<rscale>  0 0.11613634E+04</rscale>
<asrwt>0</asrwt>
<pdfrwt beam="1">  1        2 0.13263001E+00 0.11613634E+04</pdfrwt>
<pdfrwt beam="2">  1       -2 0.60173843E-01 0.11613634E+04</pdfrwt>
<totfact> 0.99096615E+01</totfact>
</mgrwt>
<rwgt>
<wgt id='morphing_basis_vector_1'> +2.1735631e-04 </wgt>
<wgt id='morphing_basis_vector_2'> +1.3873702e-04 </wgt>
<wgt id='morphing_basis_vector_3'> +2.1640161e-04 </wgt>
<wgt id='morphing_basis_vector_4'> +1.3851498e-04 </wgt>
<wgt id='morphing_basis_vector_5'> +2.1996323e-04 </wgt>
</rwgt>
</event>
<event>
 4      1 +7.8865000e-07 1.20550100e+03 7.81860800e-03 8.50998200e-02
        2 -1    0    0  501    0 +0.0000000000e+00 +0.0000000000e+00 +1.0154557863e+03 1.0154557863e+03 0.0000000000e+00 0.0000e+00 -1.0000e+00
       -2 -1    0    0    0  501 -0.0000000000e+00 -0.0000000000e+00 -3.5777866158e+02 3.5777866158e+02 0.0000000000e+00 0.0000e+00 1.0000e+00
      -13  1    1    2    0    0 -4.5608675965e+02 -1.3166007262e+02 -9.4270021444e+01 4.8397969379e+02 0.0000000000e+00 0.0000e+00 1.0000e+00
       13  1    1    2    0    0 +4.5608675965e+02 +1.3166007262e+02 +7.5194714611e+02 8.8925475405e+02 0.0000000000e+00 0.0000e+00 -1.0000e+00
<mgrwt>
<rscale>  0 0.12055014E+04</rscale>
<asrwt>0</asrwt>
<pdfrwt beam="1">  1        2 0.15622397E+00 0.12055014E+04</pdfrwt>
<pdfrwt beam="2">  1       -2 0.55042871E-01 0.12055014E+04</pdfrwt>
<totfact> 0.94372159E+01</totfact>
</mgrwt>
<rwgt>
<wgt id='morphing_basis_vector_1'> +2.5073729e-04 </wgt>
<wgt id='morphing_basis_vector_2'> +1.6189686e-04 </wgt>
<wgt id='morphing_basis_vector_3'> +2.5151767e-04 </wgt>
<wgt id='morphing_basis_vector_4'> +1.6131418e-04 </wgt>
<wgt id='morphing_basis_vector_5'> +2.5759072e-04 </wgt>
</rwgt>
</event>
<event>
 4      1 +7.8865000e-07 1.08698400e+03 7.81860800e-03 8.60572200e-02
        2 -1    0    0  501    0 +0.0000000000e+00 +0.0000000000e+00 +1.1259220684e+03 1.1259220684e+03 0.0000000000e+00 0.0000e+00 1.0000e+00
       -2 -1    0    0    0  501 -0.0000000000e+00 -0.0000000000e+00 -2.6234814445e+02 2.6234814445e+02 0.0000000000e+00 0.0000e+00 -1.0000e+00
      -13  1    1    2    0    0 +2.7106674427e+02 +2.2098096460e+02 -9.9545694035e+01 3.6361946010e+02 0.0000000000e+00 0.0000e+00 -1.0000e+00
       13  1    1    2    0    0 -2.7106674427e+02 -2.2098096460e+02 +9.6311961803e+02 1.0246507528e+03 0.0000000000e+00 0.0000e+00 1.0000e+00
<mgrwt>
<rscale>  0 0.10869840E+04</rscale>
<asrwt>0</asrwt>
<pdfrwt beam="1">  1        2 0.17321878E+00 0.10869840E+04</pdfrwt>
<pdfrwt beam="2">  1       -2 0.40361253E-01 0.10869840E+04</pdfrwt>
<totfact> 0.14871816E+02</totfact>
</mgrwt>
<rwgt>
<wgt id='morphing_basis_vector_1'> +1.6960385e-04 </wgt>
<wgt id='morphing_basis_vector_2'> +1.0754214e-04 </wgt>
<wgt id='morphing_basis_vector_3'> +1.6650391e-04 </wgt>
<wgt id='morphing_basis_vector_4'> +1.0442877e-04 </wgt>
<wgt id='morphing_basis_vector_5'> +1.6582963e-04 </wgt>
</rwgt>
</event>
<event>
 4      1 +7.8865000e-07 1.09589300e+03 7.81860800e-03 8.59809300e-02
        2 -1    0    0  501    0 +0.0000000000e+00 +0.0000000000e+00 +4.1317218297e+02 4.1317218297e+02 0.0000000000e+00 0.0000e+00 1.0000e+00
       -2 -1    0    0    0  501 -0.0000000000e+00 -0.0000000000e+00 -7.2668283135e+02 7.2668283135e+02 0.0000000000e+00 0.0000e+00 -1.0000e+00
      -13  1    1    2    0    0 +1.2953973938e+02 +2.8248866829e+02 -6.2615150829e+02 6.9903226186e+02 0.0000000000e+00 0.0000e+00 -1.0000e+00
       13  1    1    2    0    0 -1.2953973938e+02 -2.8248866829e+02 +3.1264085991e+02 4.4082275245e+02 0.0000000000e+00 0.0000e+00 1.0000e+00
<mgrwt>
<rscale>  0 0.10958926E+04</rscale>
<asrwt>0</asrwt>
<pdfrwt beam="1">  1        2 0.63564952E-01 0.10958926E+04</pdfrwt>
<pdfrwt beam="2">  1       -2 0.11179736E+00 0.10958926E+04</pdfrwt>
<totfact> 0.58709670E+01</totfact>
</mgrwt>
<rwgt>
<wgt id='morphing_basis_vector_1'> +1.7480499e-04 </wgt>
<wgt id='morphing_basis_vector_2'> +1.1082041e-04 </wgt>
<wgt id='morphing_basis_vector_3'> +1.7192023e-04 </wgt>
<wgt id='morphing_basis_vector_4'> +1.0822278e-04 </wgt>
<wgt id='morphing_basis_vector_5'> +1.7173724e-04 </wgt>
</rwgt>
</event>
<event>
 4      1 +7.8865000e-07 1.15856800e+03 7.81860800e-03 8.54645500e-02
        2 -1    0    0  501    0 +0.0000000000e+00 +0.0000000000e+00 +1.0316166032e+03 1.0316166032e+03 0.0000000000e+00 0.0000e+00 1.0000e+00
       -2 -1    0    0    0  501 -0.0000000000e+00 -0.0000000000e+00 -3.2528526784e+02 3.2528526784e+02 0.0000000000e+00 0.0000e+00 -1.0000e+00
      -13  1    1    2    0    0 -4.6385007395e+02 -1.3014783388e+02 -2.3575782560e+01 4.8233926576e+02 0.0000000000e+00 0.0000e+00 -1.0000e+00
       13  1    1    2    0    0 +4.6385007395e+02 +1.3014783388e+02 +7.2990711793e+02 8.7456260529e+02 0.0000000000e+00 0.0000e+00 1.0000e+00
<mgrwt>
<rscale>  0 0.11585675E+04</rscale>
<asrwt>0</asrwt>
<pdfrwt beam="1">  1        2 0.15871025E+00 0.11585675E+04</pdfrwt>
<pdfrwt beam="2">  1       -2 0.50043888E-01 0.11585675E+04</pdfrwt>
<totfact> 0.11179761E+02</totfact>
</mgrwt>
<rwgt>
<wgt id='morphing_basis_vector_1'> +2.1602900e-04 </wgt>
<wgt id='morphing_basis_vector_2'> +1.3936311e-04 </wgt>
<wgt id='morphing_basis_vector_3'> +2.1504092e-04 </wgt>
<wgt id='morphing_basis_vector_4'> +1.3603196e-04 </wgt>
<wgt id='morphing_basis_vector_5'> +2.1765008e-04 </wgt>
</rwgt>
</event>
<event>
 4      1 +7.8865000e-07 1.14493800e+03 7.81860800e-03 8.55738900e-02
        2 -1    0    0  501    0 +0.0000000000e+00 +0.0000000000e+00 +1.3148921198e+03 1.3148921198e+03 0.0000000000e+00 0.0000e+00 -1.0000e+00
       -2 -1    0    0    0  501 -0.0000000000e+00 -0.0000000000e+00 -2.4923765949e+02 2.4923765949e+02 0.0000000000e+00 0.0000e+00 1.0000e+00
      -13  1    1    2    0    0 -3.1849133372e+02 +4.7250781255e+02 +4.5774901970e+02 7.3091348846e+02 0.0000000000e+00 0.0000e+00 1.0000e+00
       13  1    1    2    0    0 +3.1849133372e+02 -4.7250781255e+02 +6.0790544061e+02 8.3321629082e+02 0.0000000000e+00 0.0000e+00 -1.0000e+00
<mgrwt>
<rscale>  0 0.11449378E+04</rscale>
<asrwt>0</asrwt>
<pdfrwt beam="1">  1        2 0.20229109E+00 0.11449378E+04</pdfrwt>
<pdfrwt beam="2">  1       -2 0.38344256E-01 0.11449378E+04</pdfrwt>
<totfact> 0.12651809E+02</totfact>
</mgrwt>
<rwgt>
<wgt id='morphing_basis_vector_1'> +2.1115413e-04 </wgt>
<wgt id='morphing_basis_vector_2'> +1.4677034e-04 </wgt>
<wgt id='morphing_basis_vector_3'> +2.1009405e-04 </wgt>
<wgt id='morphing_basis_vector_4'> +1.2176627e-04 </wgt>
<wgt id='morphing_basis_vector_5'> +2.0646352e-04 </wgt>
</rwgt>
</event>
<event>
 4      1 +7.8865000e-07 1.12943200e+03 7.81860800e-03 8.57002600e-02
        2 -1    0    0  501    0 +0.0000000000e+00 +0.0000000000e+00 +7.4456523805e+02 7.4456523805e+02 0.0000000000e+00 0.0000e+00 1.0000e+00
       -2 -1    0    0    0  501 -0.0000000000e+00 -0.0000000000e+00 -4.2830915079e+02 4.2830915079e+02 0.0000000000e+00 0.0000e+00 -1.0000e+00
      -13  1    1    2    0    0 +8.1103579972e+01 -4.9722235708e+02 -1.0682530370e+02 5.1499466849e+02 0.0000000000e+00 0.0000e+00 -1.0000e+00
       13  1    1    2    0    0 -8.1103579972e+01 +4.9722235708e+02 +4.2308139095e+02 6.5787972034e+02 0.0000000000e+00 0.0000e+00 1.0000e+00
<mgrwt>
<rscale>  0 0.11294319E+04</rscale>
<asrwt>0</asrwt>
<pdfrwt beam="1">  1        2 0.11454850E+00 0.11294319E+04</pdfrwt>
<pdfrwt beam="2">  1       -2 0.65893715E-01 0.11294319E+04</pdfrwt>
<totfact> 0.99362754E+01</totfact>
</mgrwt>
<rwgt>
<wgt id='morphing_basis_vector_1'> +1.9674929e-04 </wgt>
<wgt id='morphing_basis_vector_2'> +1.2763710e-04 </wgt>
<wgt id='morphing_basis_vector_3'> +1.9484982e-04 </wgt>
<wgt id='morphing_basis_vector_4'> +1.2133378e-04 </wgt>
<wgt id='morphing_basis_vector_5'> +1.9523538e-04 </wgt>
</rwgt>
</event>
<event>
 4      1 +7.8865000e-07 1.16569200e+03 7.81860800e-03 8.54080200e-02
        2 -1    0    0  501    0 +0.0000000000e+00 +0.0000000000e+00 +8.3843388628e+02 8.3843388628e+02 0.0000000000e+00 0.0000e+00 -1.0000e+00
       -2 -1    0    0    0  501 -0.0000000000e+00 -0.0000000000e+00 -4.0517141339e+02 4.0517141339e+02 0.0000000000e+00 0.0000e+00 1.0000e+00
      -13  1    1    2    0    0 -3.5396913243e+02 -1.8541834494e+02 -2.3603451031e+02 4.6409740294e+02 0.0000000000e+00 0.0000e+00 1.0000e+00
       13  1    1    2    0    0 +3.5396913243e+02 +1.8541834494e+02 +6.6929698320e+02 7.7950789674e+02 0.0000000000e+00 0.0000e+00 -1.0000e+00
<mgrwt>
<rscale>  0 0.11656920E+04</rscale>
<asrwt>0</asrwt>
<pdfrwt beam="1">  1        2 0.12898983E+00 0.11656920E+04</pdfrwt>
<pdfrwt beam="2">  1       -2 0.62334064E-01 0.11656920E+04</pdfrwt>
<totfact> 0.95570549E+01</totfact>
</mgrwt>
<rwgt>
<wgt id='morphing_basis_vector_1'> +2.2058407e-04 </wgt>
<wgt id='morphing_basis_vector_2'> +1.4123247e-04 </wgt>
<wgt id='morphing_basis_vector_3'> +2.1979553e-04 </wgt>
<wgt id='morphing_basis_vector_4'> +1.4044708e-04 </wgt>
<wgt id='morphing_basis_vector_5'> +2.2344930e-04 </wgt>
</rwgt>
</event>
<event>
 4      1 +7.8865000e-07 1.24763700e+03 7.81860800e-03 8.47869600e-02
        2 -1    0    0  501    0 +0.0000000000e+00 +0.0000000000e+00 +1.9761428794e+03 1.9761428794e+03 0.0000000000e+00 0.0000e+00 1.0000e+00
       -2 -1    0    0    0  501 -0.0000000000e+00 -0.0000000000e+00 -1.9692366422e+02 1.9692366422e+02 0.0000000000e+00 0.0000e+00 -1.0000e+00
      -13  1    1    2    0    0 -5.6458934404e+02 +1.4821964359e+02 +5.0634978777e+02 7.7273559367e+02 0.0000000000e+00 0.0000e+00 -1.0000e+00
       13  1    1    2    0    0 +5.6458934404e+02 -1.4821964359e+02 +1.2728694274e+03 1.4003309500e+03 0.0000000000e+00 0.0000e+00 1.0000e+00
<mgrwt>
<rscale>  0 0.12476366E+04</rscale>
<asrwt>0</asrwt>
<pdfrwt beam="1">  1        2 0.30402197E+00 0.12476366E+04</pdfrwt>
<pdfrwt beam="2">  1       -2 0.30295950E-01 0.12476366E+04</pdfrwt>
<totfact> 0.82267529E+01</totfact>
</mgrwt>
<rwgt>
<wgt id='morphing_basis_vector_1'> +2.8753719e-04 </wgt>
<wgt id='morphing_basis_vector_2'> +1.9084014e-04 </wgt>
<wgt id='morphing_basis_vector_3'> +2.9056267e-04 </wgt>
<wgt id='morphing_basis_vector_4'> +1.8307647e-04 </wgt>
<wgt id='morphing_basis_vector_5'> +2.9756703e-04 </wgt>
</rwgt>
</event>
<event>
 4      1 +7.8865000e-07 1.25262700e+03 7.81860800e-03 8.47507600e-02
        2 -1    0    0  501    0 +0.0000000000e+00 +0.0000000000e+00 +1.3477433536e+03 1.3477433536e+03 0.0000000000e+00 0.0000e+00 1.0000e+00
       -2 -1    0    0    0  501 -0.0000000000e+00 -0.0000000000e+00 -2.9105599407e+02 2.9105599407e+02 0.0000000000e+00 0.0000e+00 -1.0000e+00
      -13  1    1    2    0    0 +6.3831225473e+01 +5.6984552624e+02 +1.9874182868e+02 6.0687450398e+02 0.0000000000e+00 0.0000e+00 -1.0000e+00
       13  1    1    2    0    0 -6.3831225473e+01 -5.6984552624e+02 +8.5794553090e+02 1.0319248437e+03 0.0000000000e+00 0.0000e+00 1.0000e+00
<mgrwt>
<rscale>  0 0.12526273E+04</rscale>
<asrwt>0</asrwt>
<pdfrwt beam="1">  1        2 0.20734513E+00 0.12526273E+04</pdfrwt>
<pdfrwt beam="2">  1       -2 0.44777846E-01 0.12526273E+04</pdfrwt>
<totfact> 0.89795874E+01</totfact>
</mgrwt>
<rwgt>
<wgt id='morphing_basis_vector_1'> +2.9140822e-04 </wgt>
<wgt id='morphing_basis_vector_2'> +1.9226421e-04 </wgt>
<wgt id='morphing_basis_vector_3'> +2.9460511e-04 </wgt>
<wgt id='morphing_basis_vector_4'> +1.8708838e-04 </wgt>
<wgt id='morphing_basis_vector_5'> +3.0267705e-04 </wgt>
</rwgt>
</event>
<event>
 4      1 +7.8865000e-07 1.25222300e+03 7.81860800e-03 8.47536900e-02
        2 -1    0    0  501    0 +0.0000000000e+00 +0.0000000000e+00 +5.5304041318e+02 5.5304041318e+02 0.0000000000e+00 0.0000e+00 1.0000e+00
       -2 -1    0    0    0  501 -0.0000000000e+00 -0.0000000000e+00 -7.0883716771e+02 7.0883716771e+02 0.0000000000e+00 0.0000e+00 -1.0000e+00
      -13  1    1    2    0    0 +4.6037263953e+02 -4.1638486313e+02 +4.5633281076e+00 6.2075771879e+02 0.0000000000e+00 0.0000e+00 -1.0000e+00
       13  1    1    2    0    0 -4.6037263953e+02 +4.1638486313e+02 -1.6036008264e+02 6.4111986210e+02 0.0000000000e+00 0.0000e+00 1.0000e+00
<mgrwt>
<rscale>  0 0.12522230E+04</rscale>
<asrwt>0</asrwt>
<pdfrwt beam="1">  1        2 0.85083141E-01 0.12522230E+04</pdfrwt>
<pdfrwt beam="2">  1       -2 0.10905187E+00 0.12522230E+04</pdfrwt>
<totfact> 0.44291055E+01</totfact>
</mgrwt>
<rwgt>
<wgt id='morphing_basis_vector_1'> +3.0553260e-04 </wgt>
<wgt id='morphing_basis_vector_2'> +2.3545222e-04 </wgt>
<wgt id='morphing_basis_vector_3'> +3.1118241e-04 </wgt>
<wgt id='morphing_basis_vector_4'> +1.6150763e-04 </wgt>
<wgt id='morphing_basis_vector_5'> +3.0051080e-04 </wgt>
</rwgt>
</event>
<event>
 4      1 +7.8865000e-07 1.24170200e+03 7.81860800e-03 8.48302300e-02
        2 -1    0    0  501    0 +0.0000000000e+00 +0.0000000000e+00 +7.8926872597e+02 7.8926872597e+02 0.0000000000e+00 0.0000e+00 1.0000e+00
       -2 -1    0    0    0  501 -0.0000000000e+00 -0.0000000000e+00 -4.8837095520e+02 4.8837095520e+02 0.0000000000e+00 0.0000e+00 -1.0000e+00
      -13  1    1    2    0    0 +6.5911213808e+01 -2.1233802175e+02 +7.4690200131e+02 7.7929091047e+02 0.0000000000e+00 0.0000e+00 1.0000e+00
       13  1    1    2    0    0 -6.5911213808e+01 +2.1233802175e+02 -4.4600423054e+02 4.9834877069e+02 0.0000000000e+00 0.0000e+00 -1.0000e+00
<mgrwt>
<rscale>  0 0.12417019E+04</rscale>
<asrwt>0</asrwt>
<pdfrwt beam="1">  1        2 0.12142596E+00 0.12417019E+04</pdfrwt>
<pdfrwt beam="2">  1       -2 0.75133993E-01 0.12417019E+04</pdfrwt>
<totfact> 0.69048545E+01</totfact>
</mgrwt>
<rwgt>
<wgt id='morphing_basis_vector_1'> +3.8181240e-04 </wgt>
<wgt id='morphing_basis_vector_2'> +4.8562363e-04 </wgt>
<wgt id='morphing_basis_vector_3'> +4.0076866e-04 </wgt>
<wgt id='morphing_basis_vector_4'> +6.1763243e-06 </wgt>
<wgt id='morphing_basis_vector_5'> +2.7968933e-04 </wgt>
</rwgt>
</event>
<event>
 4      1 +7.8865000e-07 1.13898900e+03 7.81860800e-03 8.56221200e-02
        2 -1    0    0  501    0 +0.0000000000e+00 +0.0000000000e+00 +4.0461500033e+02 4.0461500033e+02 0.0000000000e+00 0.0000e+00 -1.0000e+00
       -2 -1    0    0    0  501 -0.0000000000e+00 -0.0000000000e+00 -8.0156186252e+02 8.0156186252e+02 0.0000000000e+00 0.0000e+00 1.0000e+00
      -13  1    1    2    0    0 +9.9773454872e+01 +5.3403976268e+02 -3.7934288597e+02 6.6261167779e+02 0.0000000000e+00 0.0000e+00 1.0000e+00
       13  1    1    2    0    0 -9.9773454872e+01 -5.3403976268e+02 -1.7603976223e+01 5.4356518505e+02 0.0000000000e+00 0.0000e+00 -1.0000e+00
<mgrwt>
<rscale>  0 0.11389889E+04</rscale>
<asrwt>0</asrwt>
<pdfrwt beam="1">  1        2 0.62248462E-01 0.11389889E+04</pdfrwt>
<pdfrwt beam="2">  1       -2 0.12331721E+00 0.11389889E+04</pdfrwt>
<totfact> 0.46542467E+01</totfact>
</mgrwt>
<rwgt>
<wgt id='morphing_basis_vector_1'> +2.0421587e-04 </wgt>
<wgt id='morphing_basis_vector_2'> +1.3529326e-04 </wgt>
<wgt id='morphing_basis_vector_3'> +2.0270754e-04 </wgt>
<wgt id='morphing_basis_vector_4'> +1.2385496e-04 </wgt>
<wgt id='morphing_basis_vector_5'> +2.0224852e-04 </wgt>
</rwgt>
</event>
<event>
 4      1 +7.8865000e-07 1.28609400e+03 7.81860800e-03 8.45125200e-02
        2 -1    0    0  501    0 +0.0000000000e+00 +0.0000000000e+00 +7.6288743074e+02 7.6288743074e+02 0.0000000000e+00 0.0000e+00 1.0000e+00
       -2 -1    0    0    0  501 -0.0000000000e+00 -0.0000000000e+00 -5.4203235790e+02 5.4203235790e+02 0.0000000000e+00 0.0000e+00 -1.0000e+00
      -13  1    1    2    0    0 +4.3607382035e+02 +1.9699467641e+02 -3.2544455214e+02 5.7868941225e+02 0.0000000000e+00 0.0000e+00 -1.0000e+00
       13  1    1    2    0    0 -4.3607382035e+02 -1.9699467641e+02 +5.4629962498e+02 7.2623037639e+02 0.0000000000e+00 0.0000e+00 1.0000e+00
<mgrwt>
<rscale>  0 0.12860944E+04</rscale>
<asrwt>0</asrwt>
<pdfrwt beam="1">  1        2 0.11736730E+00 0.12860944E+04</pdfrwt>
<pdfrwt beam="2">  1       -2 0.83389594E-01 0.12860944E+04</pdfrwt>
<totfact> 0.56812041E+01</totfact>
</mgrwt>
<rwgt>
<wgt id='morphing_basis_vector_1'> +3.2038407e-04 </wgt>
<wgt id='morphing_basis_vector_2'> +2.0778221e-04 </wgt>
<wgt id='morphing_basis_vector_3'> +3.2509061e-04 </wgt>
<wgt id='morphing_basis_vector_4'> +2.1211443e-04 </wgt>
<wgt id='morphing_basis_vector_5'> +3.3839661e-04 </wgt>
</rwgt>
</event>
<event>
 4      1 +7.8865000e-07 1.17833500e+03 7.81860800e-03 8.53087500e-02
        2 -1    0    0  501    0 +0.0000000000e+00 +0.0000000000e+00 +3.8291183543e+03 3.8291183543e+03 0.0000000000e+00 0.0000e+00 -1.0000e+00
       -2 -1    0    0    0  501 -0.0000000000e+00 -0.0000000000e+00 -9.0652359206e+01 9.0652359206e+01 0.0000000000e+00 0.0000e+00 1.0000e+00
      -13  1    1    2    0    0 +3.2867377242e+02 +4.7382699738e+02 +1.4675600621e+03 1.5767913647e+03 0.0000000000e+00 0.0000e+00 1.0000e+00
       13  1    1    2    0    0 -3.2867377242e+02 -4.7382699738e+02 +2.2709059331e+03 2.3429793488e+03 0.0000000000e+00 0.0000e+00 -1.0000e+00
<mgrwt>
<rscale>  0 0.11783355E+04</rscale>
<asrwt>0</asrwt>
<pdfrwt beam="1">  1        2 0.58909501E+00 0.11783355E+04</pdfrwt>
<pdfrwt beam="2">  1       -2 0.13946520E-01 0.11783355E+04</pdfrwt>
<totfact> 0.19450963E+01</totfact>
</mgrwt>
<rwgt>
<wgt id='morphing_basis_vector_1'> +2.3333538e-04 </wgt>
<wgt id='morphing_basis_vector_2'> +1.5806695e-04 </wgt>
<wgt id='morphing_basis_vector_3'> +2.3341229e-04 </wgt>
<wgt id='morphing_basis_vector_4'> +1.4090415e-04 </wgt>
<wgt id='morphing_basis_vector_5'> +2.3350849e-04 </wgt>
</rwgt>
</event>
<event>
 4      1 +7.8865000e-07 1.08928100e+03 7.81860800e-03 8.60374700e-02
        2 -1    0    0  501    0 +0.0000000000e+00 +0.0000000000e+00 +1.8654070897e+03 1.8654070897e+03 0.0000000000e+00 0.0000e+00 1.0000e+00
       -2 -1    0    0    0  501 -0.0000000000e+00 -0.0000000000e+00 -1.5901806060e+02 1.5901806060e+02 0.0000000000e+00 0.0000e+00 -1.0000e+00
      -13  1    1    2    0    0 -9.8578015928e+01 +4.0508769347e+02 +2.0187243543e+02 4.6321285044e+02 0.0000000000e+00 0.0000e+00 -1.0000e+00
       13  1    1    2    0    0 +9.8578015928e+01 -4.0508769347e+02 +1.5045165936e+03 1.5612122998e+03 0.0000000000e+00 0.0000e+00 1.0000e+00
<mgrwt>
<rscale>  0 0.10892813E+04</rscale>
<asrwt>0</asrwt>
<pdfrwt beam="1">  1        2 0.28698569E+00 0.10892813E+04</pdfrwt>
<pdfrwt beam="2">  1       -2 0.24464318E-01 0.10892813E+04</pdfrwt>
<totfact> 0.13942354E+02</totfact>
</mgrwt>
<rwgt>
<wgt id='morphing_basis_vector_1'> +1.7114678e-04 </wgt>
<wgt id='morphing_basis_vector_2'> +1.0902347e-04 </wgt>
<wgt id='morphing_basis_vector_3'> +1.6810814e-04 </wgt>
<wgt id='morphing_basis_vector_4'> +1.0504979e-04 </wgt>
<wgt id='morphing_basis_vector_5'> +1.6731630e-04 </wgt>
</rwgt>
</event>
<event>
 4      1 +7.8865000e-07 1.28462700e+03 7.81860800e-03 8.45228000e-02
        2 -1    0    0  501    0 +0.0000000000e+00 +0.0000000000e+00 +1.6659001582e+03 1.6659001582e+03 0.0000000000e+00 0.0000e+00 1.0000e+00
       -2 -1    0    0    0  501 -0.0000000000e+00 -0.0000000000e+00 -2.4765395299e+02 2.4765395299e+02 0.0000000000e+00 0.0000e+00 -1.0000e+00
      -13  1    1    2    0    0 -1.4703818138e+02 -3.3866979479e+02 +1.4920374112e+03 1.5370403681e+03 0.0000000000e+00 0.0000e+00 1.0000e+00
       13  1    1    2    0    0 +1.4703818138e+02 +3.3866979479e+02 -7.3791205967e+01 3.7651374313e+02 0.0000000000e+00 0.0000e+00 -1.0000e+00
<mgrwt>
<rscale>  0 0.12846272E+04</rscale>
<asrwt>0</asrwt>
<pdfrwt beam="1">  1        2 0.25629233E+00 0.12846272E+04</pdfrwt>
<pdfrwt beam="2">  1       -2 0.38100609E-01 0.12846272E+04</pdfrwt>
<totfact> 0.80560218E+01</totfact>
</mgrwt>
<rwgt>
<wgt id='morphing_basis_vector_1'> +4.2595260e-04 </wgt>
<wgt id='morphing_basis_vector_2'> +5.2731914e-04 </wgt>
<wgt id='morphing_basis_vector_3'> +4.5123035e-04 </wgt>
<wgt id='morphing_basis_vector_4'> +2.2025833e-05 </wgt>
<wgt id='morphing_basis_vector_5'> +3.2352197e-04 </wgt>
</rwgt>
</event>
<event>
 4      1 +7.8865000e-07 1.10703000e+03 7.81860800e-03 8.58865900e-02
        2 -1    0    0  501    0 +0.0000000000e+00 +0.0000000000e+00 +1.5406688021e+03 1.5406688021e+03 0.0000000000e+00 0.0000e+00 1.0000e+00
       -2 -1    0    0    0  501 -0.0000000000e+00 -0.0000000000e+00 -1.9886091189e+02 1.9886091189e+02 0.0000000000e+00 0.0000e+00 -1.0000e+00
      -13  1    1    2    0    0 -3.8446862912e+02 -5.6487305330e+01 +5.1521800401e+01 3.9199673258e+02 0.0000000000e+00 0.0000e+00 -1.0000e+00
       13  1    1    2    0    0 +3.8446862912e+02 +5.6487305330e+01 +1.2902860898e+03 1.3475329814e+03 0.0000000000e+00 0.0000e+00 1.0000e+00
<mgrwt>
<rscale>  0 0.11070299E+04</rscale>
<asrwt>0</asrwt>
<pdfrwt beam="1">  1        2 0.23702596E+00 0.11070299E+04</pdfrwt>
<pdfrwt beam="2">  1       -2 0.30593987E-01 0.11070299E+04</pdfrwt>
<totfact> 0.14259775E+02</totfact>
</mgrwt>
<rwgt>
<wgt id='morphing_basis_vector_1'> +1.8168819e-04 </wgt>
<wgt id='morphing_basis_vector_2'> +1.1565753e-04 </wgt>
<wgt id='morphing_basis_vector_3'> +1.7909610e-04 </wgt>
<wgt id='morphing_basis_vector_4'> +1.1276292e-04 </wgt>
<wgt id='morphing_basis_vector_5'> +1.7931610e-04 </wgt>
</rwgt>
</event>
<event>
 4      1 +7.8865000e-07 1.11716700e+03 7.81860800e-03 8.58017200e-02
        2 -1    0    0  501    0 +0.0000000000e+00 +0.0000000000e+00 +7.9683205462e+02 7.9683205462e+02 0.0000000000e+00 0.0000e+00 -1.0000e+00
       -2 -1    0    0    0  501 -0.0000000000e+00 -0.0000000000e+00 -3.9157021012e+02 3.9157021012e+02 0.0000000000e+00 0.0000e+00 1.0000e+00
      -13  1    1    2    0    0 +4.6368512212e+02 -1.0048799828e+02 -1.1097917397e+02 4.8725568989e+02 0.0000000000e+00 0.0000e+00 1.0000e+00
       13  1    1    2    0    0 -4.6368512212e+02 +1.0048799828e+02 +5.1624101847e+02 7.0114657485e+02 0.0000000000e+00 0.0000e+00 -1.0000e+00
<mgrwt>
<rscale>  0 0.11171673E+04</rscale>
<asrwt>0</asrwt>
<pdfrwt beam="1">  1        2 0.12258955E+00 0.11171673E+04</pdfrwt>
<pdfrwt beam="2">  1       -2 0.60241571E-01 0.11171673E+04</pdfrwt>
<totfact> 0.10992185E+02</totfact>
</mgrwt>
<rwgt>
<wgt id='morphing_basis_vector_1'> +1.8850304e-04 </wgt>
<wgt id='morphing_basis_vector_2'> +1.2131371e-04 </wgt>
<wgt id='morphing_basis_vector_3'> +1.8621697e-04 </wgt>
<wgt id='morphing_basis_vector_4'> +1.1640108e-04 </wgt>
<wgt id='morphing_basis_vector_5'> +1.8638518e-04 </wgt>
</rwgt>
</event>
<event>
 4      1 +7.8865000e-07 1.10411400e+03 7.81860800e-03 8.59111800e-02
        2 -1    0    0  501    0 +0.0000000000e+00 +0.0000000000e+00 +8.4720952647e+02 8.4720952647e+02 0.0000000000e+00 0.0000e+00 -1.0000e+00
       -2 -1    0    0    0  501 -0.0000000000e+00 -0.0000000000e+00 -3.5973007961e+02 3.5973007961e+02 0.0000000000e+00 0.0000e+00 1.0000e+00
      -13  1    1    2    0    0 -4.6301147601e+02 -2.9247529691e+02 +1.6764874454e+02 5.7273687481e+02 0.0000000000e+00 0.0000e+00 1.0000e+00
       13  1    1    2    0    0 +4.6301147601e+02 +2.9247529691e+02 +3.1983070231e+02 6.3420273128e+02 0.0000000000e+00 0.0000e+00 -1.0000e+00
<mgrwt>
<rscale>  0 0.11041137E+04</rscale>
<asrwt>0</asrwt>
<pdfrwt beam="1">  1        2 0.13033993E+00 0.11041137E+04</pdfrwt>
<pdfrwt beam="2">  1       -2 0.55343089E-01 0.11041137E+04</pdfrwt>
<totfact> 0.12068656E+02</totfact>
</mgrwt>
<rwgt>
<wgt id='morphing_basis_vector_1'> +1.8374685e-04 </wgt>
<wgt id='morphing_basis_vector_2'> +1.2607375e-04 </wgt>
<wgt id='morphing_basis_vector_3'> +1.8125621e-04 </wgt>
<wgt id='morphing_basis_vector_4'> +1.0518255e-04 </wgt>
<wgt id='morphing_basis_vector_5'> +1.7689706e-04 </wgt>
</rwgt>
</event>
<event>
 4      1 +7.8865000e-07 1.08027300e+03 7.81860800e-03 8.61151900e-02
        2 -1    0    0  501    0 +0.0000000000e+00 +0.0000000000e+00 +1.8192743460e+03 1.8192743460e+03 0.0000000000e+00 0.0000e+00 1.0000e+00
       -2 -1    0    0    0  501 -0.0000000000e+00 -0.0000000000e+00 -1.6036473820e+02 1.6036473820e+02 0.0000000000e+00 0.0000e+00 -1.0000e+00
      -13  1    1    2    0    0 +1.8128293718e+02 +3.7261393724e+02 +1.9453254427e+02 4.5776365115e+02 0.0000000000e+00 0.0000e+00 -1.0000e+00
       13  1    1    2    0    0 -1.8128293718e+02 -3.7261393724e+02 +1.4643770636e+03 1.5218754331e+03 0.0000000000e+00 0.0000e+00 1.0000e+00
<mgrwt>
<rscale>  0 0.10802730E+04</rscale>
<asrwt>0</asrwt>
<pdfrwt beam="1">  1        2 0.27988835E+00 0.10802730E+04</pdfrwt>
<pdfrwt beam="2">  1       -2 0.24671500E-01 0.10802730E+04</pdfrwt>
<totfact> 0.14584856E+02</totfact>
</mgrwt>
<rwgt>
<wgt id='morphing_basis_vector_1'> +1.6591994e-04 </wgt>
<wgt id='morphing_basis_vector_2'> +1.0558990e-04 </wgt>
<wgt id='morphing_basis_vector_3'> +1.6266748e-04 </wgt>
<wgt id='morphing_basis_vector_4'> +1.0138446e-04 </wgt>
<wgt id='morphing_basis_vector_5'> +1.6146283e-04 </wgt>
</rwgt>
</event>
<event>
 4      1 +7.8865000e-07 1.15114900e+03 7.81860800e-03 8.55238700e-02
        2 -1    0    0  501    0 +0.0000000000e+00 +0.0000000000e+00 +5.9265512907e+02 5.9265512907e+02 0.0000000000e+00 0.0000e+00 -1.0000e+00
       -2 -1    0    0    0  501 -0.0000000000e+00 -0.0000000000e+00 -5.5898605043e+02 5.5898605043e+02 0.0000000000e+00 0.0000e+00 1.0000e+00
      -13  1    1    2    0    0 +4.8959935703e+02 -2.9556363634e+02 -4.8159051496e+01 5.7392045422e+02 0.0000000000e+00 0.0000e+00 1.0000e+00
       13  1    1    2    0    0 -4.8959935703e+02 +2.9556363634e+02 +8.1828130142e+01 5.7772072528e+02 0.0000000000e+00 0.0000e+00 -1.0000e+00
<mgrwt>
<rscale>  0 0.11511489E+04</rscale>
<asrwt>0</asrwt>
<pdfrwt beam="1">  1        2 0.91177712E-01 0.11511489E+04</pdfrwt>
<pdfrwt beam="2">  1       -2 0.85997854E-01 0.11511489E+04</pdfrwt>
<totfact> 0.72664776E+01</totfact>
</mgrwt>
<rwgt>
<wgt id='morphing_basis_vector_1'> +2.1517193e-04 </wgt>
<wgt id='morphing_basis_vector_2'> +1.4889098e-04 </wgt>
<wgt id='morphing_basis_vector_3'> +2.1432096e-04 </wgt>
<wgt id='morphing_basis_vector_4'> +1.2513866e-04 </wgt>
<wgt id='morphing_basis_vector_5'> +2.1130615e-04 </wgt>
</rwgt>
</event>
<event>
 4      1 +7.8865000e-07 1.10965800e+03 7.81860800e-03 8.58645000e-02
        2 -1    0    0  501    0 +0.0000000000e+00 +0.0000000000e+00 +3.7409187541e+02 3.7409187541e+02 0.0000000000e+00 0.0000e+00 1.0000e+00
       -2 -1    0    0    0  501 -0.0000000000e+00 -0.0000000000e+00 -8.2288656202e+02 8.2288656202e+02 0.0000000000e+00 0.0000e+00 -1.0000e+00
      -13  1    1    2    0    0 +3.9779677349e+00 +2.4594735418e+02 -7.6085438475e+02 7.9962823866e+02 0.0000000000e+00 0.0000e+00 -1.0000e+00
       13  1    1    2    0    0 -3.9779677349e+00 -2.4594735418e+02 +3.1205969815e+02 3.9735019878e+02 0.0000000000e+00 0.0000e+00 1.0000e+00
<mgrwt>
<rscale>  0 0.11096579E+04</rscale>
<asrwt>0</asrwt>
<pdfrwt beam="1">  1        2 0.57552597E-01 0.11096579E+04</pdfrwt>
<pdfrwt beam="2">  1       -2 0.12659793E+00 0.11096579E+04</pdfrwt>
<totfact> 0.47565665E+01</totfact>
</mgrwt>
<rwgt>
<wgt id='morphing_basis_vector_1'> +1.8312633e-04 </wgt>
<wgt id='morphing_basis_vector_2'> +1.1617096e-04 </wgt>
<wgt id='morphing_basis_vector_3'> +1.8059506e-04 </wgt>
<wgt id='morphing_basis_vector_4'> +1.1421000e-04 </wgt>
<wgt id='morphing_basis_vector_5'> +1.8116263e-04 </wgt>
</rwgt>
</event>
<event>
 4      1 +7.8865000e-07 1.10060800e+03 7.81860800e-03 8.59408500e-02
        2 -1    0    0  501    0 +0.0000000000e+00 +0.0000000000e+00 +1.4328963192e+03 1.4328963192e+03 0.0000000000e+00 0.0000e+00 -1.0000e+00
       -2 -1    0    0    0  501 -0.0000000000e+00 -0.0000000000e+00 -2.1134413024e+02 2.1134413024e+02 0.0000000000e+00 0.0000e+00 1.0000e+00
      -13  1    1    2    0    0 +5.4876228286e+02 +4.0837158039e+01 +6.0308416157e+02 8.1640567276e+02 0.0000000000e+00 0.0000e+00 1.0000e+00
       13  1    1    2    0    0 -5.4876228286e+02 -4.0837158039e+01 +6.1846802734e+02 8.2783477664e+02 0.0000000000e+00 0.0000e+00 -1.0000e+00
<mgrwt>
<rscale>  0 0.11006075E+04</rscale>
<asrwt>0</asrwt>
<pdfrwt beam="1">  1        2 0.22044558E+00 0.11006075E+04</pdfrwt>
<pdfrwt beam="2">  1       -2 0.32514483E-01 0.11006075E+04</pdfrwt>
<totfact> 0.14699025E+02</totfact>
</mgrwt>
<rwgt>
<wgt id='morphing_basis_vector_1'> +1.8374039e-04 </wgt>
<wgt id='morphing_basis_vector_2'> +1.3107743e-04 </wgt>
<wgt id='morphing_basis_vector_3'> +1.8123653e-04 </wgt>
<wgt id='morphing_basis_vector_4'> +1.0020824e-04 </wgt>
<wgt id='morphing_basis_vector_5'> +1.7427809e-04 </wgt>
</rwgt>
</event>
<event>
 4      1 +7.8865000e-07 1.09300400e+03 7.81860800e-03 8.60055800e-02
        2 -1    0    0  501    0 +0.0000000000e+00 +0.0000000000e+00 +4.6179131576e+02 4.6179131576e+02 0.0000000000e+00 0.0000e+00 -1.0000e+00
       -2 -1    0    0    0  501 -0.0000000000e+00 -0.0000000000e+00 -6.4675214456e+02 6.4675214456e+02 0.0000000000e+00 0.0000e+00 1.0000e+00
      -13  1    1    2    0    0 +2.3200679276e+02 -2.8190046852e+02 -5.0491835801e+02 6.2308713218e+02 0.0000000000e+00 0.0000e+00 1.0000e+00
       13  1    1    2    0    0 -2.3200679276e+02 +2.8190046852e+02 +3.1995752920e+02 4.8545632814e+02 0.0000000000e+00 0.0000e+00 -1.0000e+00
<mgrwt>
<rscale>  0 0.10930042E+04</rscale>
<asrwt>0</asrwt>
<pdfrwt beam="1">  1        2 0.71044818E-01 0.10930042E+04</pdfrwt>
<pdfrwt beam="2">  1       -2 0.99500330E-01 0.10930042E+04</pdfrwt>
<totfact> 0.69027553E+01</totfact>
</mgrwt>
<rwgt>
<wgt id='morphing_basis_vector_1'> +1.7317060e-04 </wgt>
<wgt id='morphing_basis_vector_2'> +1.0994586e-04 </wgt>
<wgt id='morphing_basis_vector_3'> +1.7021734e-04 </wgt>
<wgt id='morphing_basis_vector_4'> +1.0687515e-04 </wgt>
<wgt id='morphing_basis_vector_5'> +1.6979836e-04 </wgt>
</rwgt>
</event>
<event>
 4      1 +7.8865000e-07 1.22091800e+03 7.81860800e-03 8.49838100e-02
        2 -1    0    0  501    0 +0.0000000000e+00 +0.0000000000e+00 +2.0331095673e+03 2.0331095673e+03 0.0000000000e+00 0.0000e+00 1.0000e+00
       -2 -1    0    0    0  501 -0.0000000000e+00 -0.0000000000e+00 -1.8329566167e+02 1.8329566167e+02 0.0000000000e+00 0.0000e+00 -1.0000e+00
      -13  1    1    2    0    0 +1.3873501869e+02 -5.5266033248e+02 +5.2726728116e+02 7.7633216750e+02 0.0000000000e+00 0.0000e+00 -1.0000e+00
       13  1    1    2    0    0 -1.3873501869e+02 +5.5266033248e+02 +1.3225466245e+03 1.4400730615e+03 0.0000000000e+00 0.0000e+00 1.0000e+00
<mgrwt>
<rscale>  0 0.12209180E+04</rscale>
<asrwt>0</asrwt>
<pdfrwt beam="1">  1        2 0.31278607E+00 0.12209180E+04</pdfrwt>
<pdfrwt beam="2">  1       -2 0.28199334E-01 0.12209180E+04</pdfrwt>
<totfact> 0.86952958E+01</totfact>
</mgrwt>
<rwgt>
<wgt id='morphing_basis_vector_1'> +2.6479682e-04 </wgt>
<wgt id='morphing_basis_vector_2'> +1.7520698e-04 </wgt>
<wgt id='morphing_basis_vector_3'> +2.6649572e-04 </wgt>
<wgt id='morphing_basis_vector_4'> +1.6725514e-04 </wgt>
<wgt id='morphing_basis_vector_5'> +2.7160437e-04 </wgt>
</rwgt>
</event>
<event>
 4      1 +7.8865000e-07 1.11781300e+03 7.81860800e-03 8.57963400e-02
        2 -1    0    0  501    0 +0.0000000000e+00 +0.0000000000e+00 +1.3094121013e+03 1.3094121013e+03 0.0000000000e+00 0.0000e+00 1.0000e+00
       -2 -1    0    0    0  501 -0.0000000000e+00 -0.0000000000e+00 -2.3856237953e+02 2.3856237953e+02 0.0000000000e+00 0.0000e+00 -1.0000e+00
      -13  1    1    2    0    0 -4.7660495053e+02 +2.5244178466e+01 +1.3266493622e+02 4.9536807802e+02 0.0000000000e+00 0.0000e+00 -1.0000e+00
       13  1    1    2    0    0 +4.7660495053e+02 -2.5244178466e+01 +9.3818478554e+02 1.0526064028e+03 0.0000000000e+00 0.0000e+00 1.0000e+00
<mgrwt>
<rscale>  0 0.11178130E+04</rscale>
<asrwt>0</asrwt>
<pdfrwt beam="1">  1        2 0.20144801E+00 0.11178130E+04</pdfrwt>
<pdfrwt beam="2">  1       -2 0.36701906E-01 0.11178130E+04</pdfrwt>
<totfact> 0.13840914E+02</totfact>
</mgrwt>
<rwgt>
<wgt id='morphing_basis_vector_1'> +1.8894146e-04 </wgt>
<wgt id='morphing_basis_vector_2'> +1.2167393e-04 </wgt>
<wgt id='morphing_basis_vector_3'> +1.8667562e-04 </wgt>
<wgt id='morphing_basis_vector_4'> +1.1663895e-04 </wgt>
<wgt id='morphing_basis_vector_5'> +1.8684245e-04 </wgt>
</rwgt>
</event>
<event>
 4      1 +7.8865000e-07 1.08068600e+03 7.81860800e-03 8.61116100e-02
        2 -1    0    0  501    0 +0.0000000000e+00 +0.0000000000e+00 +1.6065921612e+03 1.6065921612e+03 0.0000000000e+00 0.0000e+00 1.0000e+00
       -2 -1    0    0    0  501 -0.0000000000e+00 -0.0000000000e+00 -1.8173271250e+02 1.8173271250e+02 0.0000000000e+00 0.0000e+00 -1.0000e+00
      -13  1    1    2    0    0 +8.0604449454e+01 +4.0953282308e+02 +1.4457292859e+02 4.4171884965e+02 0.0000000000e+00 0.0000e+00 -1.0000e+00
       13  1    1    2    0    0 -8.0604449454e+01 -4.0953282308e+02 +1.2802865201e+03 1.3466060241e+03 0.0000000000e+00 0.0000e+00 1.0000e+00
<mgrwt>
<rscale>  0 0.10806856E+04</rscale>
<asrwt>0</asrwt>
<pdfrwt beam="1">  1        2 0.24716802E+00 0.10806856E+04</pdfrwt>
<pdfrwt beam="2">  1       -2 0.27958880E-01 0.10806856E+04</pdfrwt>
<totfact> 0.15393976E+02</totfact>
</mgrwt>
<rwgt>
<wgt id='morphing_basis_vector_1'> +1.6617053e-04 </wgt>
<wgt id='morphing_basis_vector_2'> +1.0578731e-04 </wgt>
<wgt id='morphing_basis_vector_3'> +1.6292795e-04 </wgt>
<wgt id='morphing_basis_vector_4'> +1.0152766e-04 </wgt>
<wgt id='morphing_basis_vector_5'> +1.6172616e-04 </wgt>
</rwgt>
</event>
<event>
 4      1 +7.8865000e-07 1.15307900e+03 7.81860800e-03 8.55083800e-02
        2 -1    0    0  501    0 +0.0000000000e+00 +0.0000000000e+00 +1.2702413730e+03 1.2702413730e+03 0.0000000000e+00 0.0000e+00 -1.0000e+00
       -2 -1    0    0    0  501 -0.0000000000e+00 -0.0000000000e+00 -2.6168103402e+02 2.6168103402e+02 0.0000000000e+00 0.0000e+00 1.0000e+00
      -13  1    1    2    0    0 +1.9731169766e+02 +3.4430299204e+02 -5.1367205685e+01 4.0014378189e+02 0.0000000000e+00 0.0000e+00 1.0000e+00
       13  1    1    2    0    0 -1.9731169766e+02 -3.4430299204e+02 +1.0599275447e+03 1.1317786251e+03 0.0000000000e+00 0.0000e+00 -1.0000e+00
<mgrwt>
<rscale>  0 0.11530795E+04</rscale>
<asrwt>0</asrwt>
<pdfrwt beam="1">  1        2 0.19542175E+00 0.11530795E+04</pdfrwt>
<pdfrwt beam="2">  1       -2 0.40258621E-01 0.11530795E+04</pdfrwt>
<totfact> 0.12249244E+02</totfact>
</mgrwt>
<rwgt>
<wgt id='morphing_basis_vector_1'> +2.1172778e-04 </wgt>
<wgt id='morphing_basis_vector_2'> +1.3539845e-04 </wgt>
<wgt id='morphing_basis_vector_3'> +2.1050858e-04 </wgt>
<wgt id='morphing_basis_vector_4'> +1.3411594e-04 </wgt>
<wgt id='morphing_basis_vector_5'> +2.1335313e-04 </wgt>
</rwgt>
</event>
<event>
 4      1 +7.8865000e-07 1.18581900e+03 7.81860800e-03 8.52506000e-02
        2 -1    0    0  501    0 +0.0000000000e+00 +0.0000000000e+00 +2.1442620668e+02 2.1442620668e+02 0.0000000000e+00 0.0000e+00 -1.0000e+00
       -2 -1    0    0    0  501 -0.0000000000e+00 -0.0000000000e+00 -1.6394538962e+03 1.6394538962e+03 0.0000000000e+00 0.0000e+00 1.0000e+00
      -13  1    1    2    0    0 -5.2946635202e+02 +1.4731087215e+02 -1.0603665651e+03 1.1943250661e+03 0.0000000000e+00 0.0000e+00 1.0000e+00
       13  1    1    2    0    0 +5.2946635202e+02 -1.4731087215e+02 -3.6466112441e+02 6.5955503685e+02 0.0000000000e+00 0.0000e+00 -1.0000e+00
<mgrwt>
<rscale>  0 0.11858193E+04</rscale>
<asrwt>0</asrwt>
<pdfrwt beam="1">  1        2 0.32988648E-01 0.11858193E+04</pdfrwt>
<pdfrwt beam="2">  1       -2 0.25222367E+00 0.11858193E+04</pdfrwt>
<totfact> 0.98007707E+00</totfact>
</mgrwt>
<rwgt>
<wgt id='morphing_basis_vector_1'> +2.3697350e-04 </wgt>
<wgt id='morphing_basis_vector_2'> +1.5596186e-04 </wgt>
<wgt id='morphing_basis_vector_3'> +2.3712436e-04 </wgt>
<wgt id='morphing_basis_vector_4'> +1.4815041e-04 </wgt>
<wgt id='morphing_basis_vector_5'> +2.4009082e-04 </wgt>
</rwgt>
</event>
<event>
 4      1 +7.8865000e-07 1.13173400e+03 7.81860800e-03 8.56813600e-02
        2 -1    0    0  501    0 +0.0000000000e+00 +0.0000000000e+00 +3.8377801120e+02 3.8377801120e+02 0.0000000000e+00 0.0000e+00 -1.0000e+00
       -2 -1    0    0    0  501 -0.0000000000e+00 -0.0000000000e+00 -8.3435066014e+02 8.3435066014e+02 0.0000000000e+00 0.0000e+00 1.0000e+00
      -13  1    1    2    0    0 +1.5578935284e+02 -1.3294877011e+02 -7.9305836936e+02 8.1907708742e+02 0.0000000000e+00 0.0000e+00 1.0000e+00
       13  1    1    2    0    0 -1.5578935284e+02 +1.3294877011e+02 +3.4248572042e+02 3.9905158391e+02 0.0000000000e+00 0.0000e+00 -1.0000e+00
<mgrwt>
<rscale>  0 0.11317340E+04</rscale>
<asrwt>0</asrwt>
<pdfrwt beam="1">  1        2 0.59042772E-01 0.11317340E+04</pdfrwt>
<pdfrwt beam="2">  1       -2 0.12836164E+00 0.11317340E+04</pdfrwt>
<totfact> 0.44475801E+01</totfact>
</mgrwt>
<rwgt>
<wgt id='morphing_basis_vector_1'> +1.9716593e-04 </wgt>
<wgt id='morphing_basis_vector_2'> +1.2535309e-04 </wgt>
<wgt id='morphing_basis_vector_3'> +1.9525796e-04 </wgt>
<wgt id='morphing_basis_vector_4'> +1.2421085e-04 </wgt>
<wgt id='morphing_basis_vector_5'> +1.9705708e-04 </wgt>
</rwgt>
</event>
<event>
 4      1 +7.8865000e-07 1.28367700e+03 7.81860800e-03 8.45294700e-02
        2 -1    0    0  501    0 +0.0000000000e+00 +0.0000000000e+00 +7.9540125745e+02 7.9540125745e+02 0.0000000000e+00 0.0000e+00 -1.0000e+00
       -2 -1    0    0    0  501 -0.0000000000e+00 -0.0000000000e+00 -5.1792283795e+02 5.1792283795e+02 0.0000000000e+00 0.0000e+00 1.0000e+00
      -13  1    1    2    0    0 +2.6817325435e+02 -4.8732828996e+02 -1.8889225700e+02 5.8744024488e+02 0.0000000000e+00 0.0000e+00 1.0000e+00
       13  1    1    2    0    0 -2.6817325435e+02 +4.8732828996e+02 +4.6637067650e+02 7.2588385052e+02 0.0000000000e+00 0.0000e+00 -1.0000e+00
<mgrwt>
<rscale>  0 0.12836767E+04</rscale>
<asrwt>0</asrwt>
<pdfrwt beam="1">  1        2 0.12236942E+00 0.12836767E+04</pdfrwt>
<pdfrwt beam="2">  1       -2 0.79680436E-01 0.12836767E+04</pdfrwt>
<totfact> 0.59762667E+01</totfact>
</mgrwt>
<rwgt>
<wgt id='morphing_basis_vector_1'> +3.1899968e-04 </wgt>
<wgt id='morphing_basis_vector_2'> +2.0896773e-04 </wgt>
<wgt id='morphing_basis_vector_3'> +3.2374402e-04 </wgt>
<wgt id='morphing_basis_vector_4'> +2.0885092e-04 </wgt>
<wgt id='morphing_basis_vector_5'> +3.3562024e-04 </wgt>
</rwgt>
</event>
<event>
 4      1 +7.8865000e-07 1.24536300e+03 7.81860800e-03 8.48035100e-02
        2 -1    0    0  501    0 +0.0000000000e+00 +0.0000000000e+00 +1.0788507458e+03 1.0788507458e+03 0.0000000000e+00 0.0000e+00 -1.0000e+00
       -2 -1    0    0    0  501 -0.0000000000e+00 -0.0000000000e+00 -3.5939349510e+02 3.5939349510e+02 0.0000000000e+00 0.0000e+00 1.0000e+00
      -13  1    1    2    0    0 -5.4887651505e+02 +1.1499141893e+02 +4.7177289796e+01 5.6277362400e+02 0.0000000000e+00 0.0000e+00 1.0000e+00
       13  1    1    2    0    0 +5.4887651505e+02 -1.1499141893e+02 +6.7227996087e+02 8.7547061686e+02 0.0000000000e+00 0.0000e+00 -1.0000e+00
<mgrwt>
<rscale>  0 0.12453625E+04</rscale>
<asrwt>0</asrwt>
<pdfrwt beam="1">  1        2 0.16597704E+00 0.12453625E+04</pdfrwt>
<pdfrwt beam="2">  1       -2 0.55291307E-01 0.12453625E+04</pdfrwt>
<totfact> 0.85277988E+01</totfact>
</mgrwt>
<rwgt>
<wgt id='morphing_basis_vector_1'> +2.8475017e-04 </wgt>
<wgt id='morphing_basis_vector_2'> +1.8708380e-04 </wgt>
<wgt id='morphing_basis_vector_3'> +2.8752535e-04 </wgt>
<wgt id='morphing_basis_vector_4'> +1.8307643e-04 </wgt>
<wgt id='morphing_basis_vector_5'> +2.9538475e-04 </wgt>
</rwgt>
</event>
<event>
 4      1 +7.8865000e-07 1.11730200e+03 7.81860800e-03 8.58006000e-02
        2 -1    0    0  501    0 +0.0000000000e+00 +0.0000000000e+00 +1.9596335510e+02 1.9596335510e+02 0.0000000000e+00 0.0000e+00 1.0000e+00
       -2 -1    0    0    0  501 -0.0000000000e+00 -0.0000000000e+00 -1.5925978835e+03 1.5925978835e+03 0.0000000000e+00 0.0000e+00 -1.0000e+00
      -13  1    1    2    0    0 +1.7204694544e+01 +2.4952011984e+02 -1.4979648795e+03 1.5187017719e+03 0.0000000000e+00 0.0000e+00 -1.0000e+00
       13  1    1    2    0    0 -1.7204694544e+01 -2.4952011984e+02 +1.0133035110e+02 2.6985946671e+02 0.0000000000e+00 0.0000e+00 1.0000e+00
<mgrwt>
<rscale>  0 0.11173018E+04</rscale>
<asrwt>0</asrwt>
<pdfrwt beam="1">  1        2 0.30148208E-01 0.11173018E+04</pdfrwt>
<pdfrwt beam="2">  1       -2 0.24501506E+00 0.11173018E+04</pdfrwt>
<totfact> 0.12266642E+01</totfact>
</mgrwt>
<rwgt>
<wgt id='morphing_basis_vector_1'> +1.8790340e-04 </wgt>
<wgt id='morphing_basis_vector_2'> +1.1930715e-04 </wgt>
<wgt id='morphing_basis_vector_3'> +1.8558061e-04 </wgt>
<wgt id='morphing_basis_vector_4'> +1.1759369e-04 </wgt>
<wgt id='morphing_basis_vector_5'> +1.8655467e-04 </wgt>
</rwgt>
</event>
<event>
 4      1 +7.8865000e-07 1.09262900e+03 7.81860800e-03 8.60087900e-02
        2 -1    0    0  501    0 +0.0000000000e+00 +0.0000000000e+00 +5.0655787791e+02 5.0655787791e+02 0.0000000000e+00 0.0000e+00 1.0000e+00
       -2 -1    0    0    0  501 -0.0000000000e+00 -0.0000000000e+00 -5.8919146441e+02 5.8919146441e+02 0.0000000000e+00 0.0000e+00 -1.0000e+00
      -13  1    1    2    0    0 +3.6371841018e+02 -2.6410248134e+02 +2.7008303409e+02 5.2439112107e+02 0.0000000000e+00 0.0000e+00 1.0000e+00
       13  1    1    2    0    0 -3.6371841018e+02 +2.6410248134e+02 -3.5271662059e+02 5.7135822125e+02 0.0000000000e+00 0.0000e+00 -1.0000e+00
<mgrwt>
<rscale>  0 0.10926291E+04</rscale>
<asrwt>0</asrwt>
<pdfrwt beam="1">  1        2 0.77931982E-01 0.10926291E+04</pdfrwt>
<pdfrwt beam="2">  1       -2 0.90644840E-01 0.10926291E+04</pdfrwt>
<totfact> 0.77453866E+01</totfact>
</mgrwt>
<rwgt>
<wgt id='morphing_basis_vector_1'> +2.1017027e-04 </wgt>
<wgt id='morphing_basis_vector_2'> +2.2205116e-04 </wgt>
<wgt id='morphing_basis_vector_3'> +2.0850608e-04 </wgt>
<wgt id='morphing_basis_vector_4'> +4.5902541e-05 </wgt>
<wgt id='morphing_basis_vector_5'> +1.6565507e-04 </wgt>
</rwgt>
</event>
<event>
 4      1 +7.8865000e-07 1.11530100e+03 7.81860800e-03 8.58172700e-02
        2 -1    0    0  501    0 +0.0000000000e+00 +0.0000000000e+00 +2.9775092057e+02 2.9775092057e+02 0.0000000000e+00 0.0000e+00 1.0000e+00
       -2 -1    0    0    0  501 -0.0000000000e+00 -0.0000000000e+00 -1.0444099293e+03 1.0444099293e+03 0.0000000000e+00 0.0000e+00 -1.0000e+00
      -13  1    1    2    0    0 +7.9873596642e+01 +4.8603476193e+02 -6.8797943341e+02 8.4612368011e+02 0.0000000000e+00 0.0000e+00 -1.0000e+00
       13  1    1    2    0    0 -7.9873596642e+01 -4.8603476193e+02 -5.8679575334e+01 4.9603716978e+02 0.0000000000e+00 0.0000e+00 1.0000e+00
<mgrwt>
<rscale>  0 0.11153009E+04</rscale>
<asrwt>0</asrwt>
<pdfrwt beam="1">  1        2 0.45807834E-01 0.11153009E+04</pdfrwt>
<pdfrwt beam="2">  1       -2 0.16067845E+00 0.11153009E+04</pdfrwt>
<totfact> 0.31562785E+01</totfact>
</mgrwt>
<rwgt>
<wgt id='morphing_basis_vector_1'> +1.8757985e-04 </wgt>
<wgt id='morphing_basis_vector_2'> +1.2130039e-04 </wgt>
<wgt id='morphing_basis_vector_3'> +1.8525535e-04 </wgt>
<wgt id='morphing_basis_vector_4'> +1.1515375e-04 </wgt>
<wgt id='morphing_basis_vector_5'> +1.8503153e-04 </wgt>
</rwgt>
</event>
<event>
 4      1 +7.8865000e-07 1.09665600e+03 7.81860800e-03 8.59744200e-02
        2 -1    0    0  501    0 +0.0000000000e+00 +0.0000000000e+00 +7.8614618483e+02 7.8614618483e+02 0.0000000000e+00 0.0000e+00 -1.0000e+00
       -2 -1    0    0    0  501 -0.0000000000e+00 -0.0000000000e+00 -3.8245278176e+02 3.8245278176e+02 0.0000000000e+00 0.0000e+00 1.0000e+00
      -13  1    1    2    0    0 -5.2457137437e+02 -7.0424779120e+01 +4.9167798045e+01 5.3155643980e+02 0.0000000000e+00 0.0000e+00 1.0000e+00
       13  1    1    2    0    0 +5.2457137437e+02 +7.0424779120e+01 +3.5452560502e+02 6.3704252679e+02 0.0000000000e+00 0.0000e+00 -1.0000e+00
<mgrwt>
<rscale>  0 0.10966564E+04</rscale>
<asrwt>0</asrwt>
<pdfrwt beam="1">  1        2 0.12094557E+00 0.10966564E+04</pdfrwt>
<pdfrwt beam="2">  1       -2 0.58838890E-01 0.10966564E+04</pdfrwt>
<totfact> 0.11752988E+02</totfact>
</mgrwt>
<rwgt>
<wgt id='morphing_basis_vector_1'> +1.7750365e-04 </wgt>
<wgt id='morphing_basis_vector_2'> +1.1788055e-04 </wgt>
<wgt id='morphing_basis_vector_3'> +1.7472530e-04 </wgt>
<wgt id='morphing_basis_vector_4'> +1.0487349e-04 </wgt>
<wgt id='morphing_basis_vector_5'> +1.7201466e-04 </wgt>
</rwgt>
</event>
<event>
 4      1 +7.8865000e-07 1.09782400e+03 7.81860800e-03 8.59644900e-02
        2 -1    0    0  501    0 +0.0000000000e+00 +0.0000000000e+00 +4.4393629178e+02 4.4393629178e+02 0.0000000000e+00 0.0000e+00 1.0000e+00
       -2 -1    0    0    0  501 -0.0000000000e+00 -0.0000000000e+00 -6.7871078083e+02 6.7871078083e+02 0.0000000000e+00 0.0000e+00 -1.0000e+00
      -13  1    1    2    0    0 +4.4687449769e+02 -5.7002723868e+00 -4.4330201958e+02 6.2948073072e+02 0.0000000000e+00 0.0000e+00 -1.0000e+00
       13  1    1    2    0    0 -4.4687449769e+02 +5.7002723868e+00 +2.0852753052e+02 4.9316634189e+02 0.0000000000e+00 0.0000e+00 1.0000e+00
<mgrwt>
<rscale>  0 0.10978239E+04</rscale>
<asrwt>0</asrwt>
<pdfrwt beam="1">  1        2 0.68297891E-01 0.10978239E+04</pdfrwt>
<pdfrwt beam="2">  1       -2 0.10441704E+00 0.10978239E+04</pdfrwt>
<totfact> 0.64159287E+01</totfact>
</mgrwt>
<rwgt>
<wgt id='morphing_basis_vector_1'> +1.7638495e-04 </wgt>
<wgt id='morphing_basis_vector_2'> +1.1285689e-04 </wgt>
<wgt id='morphing_basis_vector_3'> +1.7356560e-04 </wgt>
<wgt id='morphing_basis_vector_4'> +1.0834359e-04 </wgt>
<wgt id='morphing_basis_vector_5'> +1.7299218e-04 </wgt>
</rwgt>
</event>
<event>
 4      1 +7.8865000e-07 1.27033500e+03 7.81860800e-03 8.46237400e-02
        2 -1    0    0  501    0 +0.0000000000e+00 +0.0000000000e+00 +1.3813135303e+03 1.3813135303e+03 0.0000000000e+00 0.0000e+00 1.0000e+00
       -2 -1    0    0    0  501 -0.0000000000e+00 -0.0000000000e+00 -2.9206841332e+02 2.9206841332e+02 0.0000000000e+00 0.0000e+00 -1.0000e+00
      -13  1    1    2    0    0 +2.6414846467e+02 -4.3240501994e+02 +4.0105069855e+01 5.0828823446e+02 0.0000000000e+00 0.0000e+00 -1.0000e+00
       13  1    1    2    0    0 -2.6414846467e+02 +4.3240501994e+02 +1.0491400471e+03 1.1650937091e+03 0.0000000000e+00 0.0000e+00 1.0000e+00
<mgrwt>
<rscale>  0 0.12703355E+04</rscale>
<asrwt>0</asrwt>
<pdfrwt beam="1">  1        2 0.21250977E+00 0.12703355E+04</pdfrwt>
<pdfrwt beam="2">  1       -2 0.44933603E-01 0.12703355E+04</pdfrwt>
<totfact> 0.85265042E+01</totfact>
</mgrwt>
<rwgt>
<wgt id='morphing_basis_vector_1'> +3.0595382e-04 </wgt>
<wgt id='morphing_basis_vector_2'> +1.9879390e-04 </wgt>
<wgt id='morphing_basis_vector_3'> +3.0984138e-04 </wgt>
<wgt id='morphing_basis_vector_4'> +2.0096611e-04 </wgt>
<wgt id='morphing_basis_vector_5'> +3.2127441e-04 </wgt>
</rwgt>
</event>
<event>
 4      1 +7.8865000e-07 1.18863600e+03 7.81860800e-03 8.52288400e-02
        2 -1    0    0  501    0 +0.0000000000e+00 +0.0000000000e+00 +9.2240604170e+02 9.2240604170e+02 0.0000000000e+00 0.0000e+00 -1.0000e+00
       -2 -1    0    0    0  501 -0.0000000000e+00 -0.0000000000e+00 -3.8292674088e+02 3.8292674088e+02 0.0000000000e+00 0.0000e+00 1.0000e+00
      -13  1    1    2    0    0 +5.4416562279e+02 +2.3841726947e+02 +2.5220592461e+02 6.4541990039e+02 0.0000000000e+00 0.0000e+00 1.0000e+00
       13  1    1    2    0    0 -5.4416562279e+02 -2.3841726947e+02 +2.8727337621e+02 6.5991288220e+02 0.0000000000e+00 0.0000e+00 -1.0000e+00
<mgrwt>
<rscale>  0 0.11886361E+04</rscale>
<asrwt>0</asrwt>
<pdfrwt beam="1">  1        2 0.14190862E+00 0.11886361E+04</pdfrwt>
<pdfrwt beam="2">  1       -2 0.58911806E-01 0.11886361E+04</pdfrwt>
<totfact> 0.94283055E+01</totfact>
</mgrwt>
<rwgt>
<wgt id='morphing_basis_vector_1'> +2.4495351e-04 </wgt>
<wgt id='morphing_basis_vector_2'> +1.7497432e-04 </wgt>
<wgt id='morphing_basis_vector_3'> +2.4593414e-04 </wgt>
<wgt id='morphing_basis_vector_4'> +1.3965791e-04 </wgt>
<wgt id='morphing_basis_vector_5'> +2.4184292e-04 </wgt>
</rwgt>
</event>
<event>
 4      1 +7.8865000e-07 1.10942900e+03 7.81860800e-03 8.58664200e-02
        2 -1    0    0  501    0 +0.0000000000e+00 +0.0000000000e+00 +3.2199133222e+03 3.2199133222e+03 0.0000000000e+00 0.0000e+00 -1.0000e+00
       -2 -1    0    0    0  501 -0.0000000000e+00 -0.0000000000e+00 -9.5564142314e+01 9.5564142314e+01 0.0000000000e+00 0.0000e+00 1.0000e+00
      -13  1    1    2    0    0 +4.4268296609e+02 -3.3424866548e+02 +1.5495393599e+03 1.6458318890e+03 0.0000000000e+00 0.0000e+00 1.0000e+00
       13  1    1    2    0    0 -4.4268296609e+02 +3.3424866548e+02 +1.5748098200e+03 1.6696455756e+03 0.0000000000e+00 0.0000e+00 -1.0000e+00
<mgrwt>
<rscale>  0 0.11094291E+04</rscale>
<asrwt>0</asrwt>
<pdfrwt beam="1">  1        2 0.49537120E+00 0.11094291E+04</pdfrwt>
<pdfrwt beam="2">  1       -2 0.14702178E-01 0.11094291E+04</pdfrwt>
<totfact> 0.49998667E+01</totfact>
</mgrwt>
<rwgt>
<wgt id='morphing_basis_vector_1'> +1.8936202e-04 </wgt>
<wgt id='morphing_basis_vector_2'> +1.3529721e-04 </wgt>
<wgt id='morphing_basis_vector_3'> +1.8715380e-04 </wgt>
<wgt id='morphing_basis_vector_4'> +1.0359988e-04 </wgt>
<wgt id='morphing_basis_vector_5'> +1.8032301e-04 </wgt>
</rwgt>
</event>
<event>
 4      1 +7.8865000e-07 1.10621000e+03 7.81860800e-03 8.58935000e-02
        2 -1    0    0  501    0 +0.0000000000e+00 +0.0000000000e+00 +1.9653998965e+03 1.9653998965e+03 0.0000000000e+00 0.0000e+00 -1.0000e+00
       -2 -1    0    0    0  501 -0.0000000000e+00 -0.0000000000e+00 -1.5565535814e+02 1.5565535814e+02 0.0000000000e+00 0.0000e+00 1.0000e+00
      -13  1    1    2    0    0 +5.0757119580e+02 +2.1795505103e+02 +8.5090816650e+02 1.0144839234e+03 0.0000000000e+00 0.0000e+00 1.0000e+00
       13  1    1    2    0    0 -5.0757119580e+02 -2.1795505103e+02 +9.5883637187e+02 1.1065713312e+03 0.0000000000e+00 0.0000e+00 -1.0000e+00
<mgrwt>
<rscale>  0 0.11062098E+04</rscale>
<asrwt>0</asrwt>
<pdfrwt beam="1">  1        2 0.30236920E+00 0.11062098E+04</pdfrwt>
<pdfrwt beam="2">  1       -2 0.23946980E-01 0.11062098E+04</pdfrwt>
<totfact> 0.12708312E+02</totfact>
</mgrwt>
<rwgt>
<wgt id='morphing_basis_vector_1'> +1.8638499e-04 </wgt>
<wgt id='morphing_basis_vector_2'> +1.3100141e-04 </wgt>
<wgt id='morphing_basis_vector_3'> +1.8402317e-04 </wgt>
<wgt id='morphing_basis_vector_4'> +1.0385050e-04 </wgt>
<wgt id='morphing_basis_vector_5'> +1.7819618e-04 </wgt>
</rwgt>
</event>
<event>
 4      1 +7.8865000e-07 1.07121300e+03 7.81860800e-03 8.61941500e-02
        2 -1    0    0  501    0 +0.0000000000e+00 +0.0000000000e+00 +1.1534335548e+03 1.1534335548e+03 0.0000000000e+00 0.0000e+00 -1.0000e+00
       -2 -1    0    0    0  501 -0.0000000000e+00 -0.0000000000e+00 -2.4871330225e+02 2.4871330225e+02 0.0000000000e+00 0.0000e+00 1.0000e+00
      -13  1    1    2    0    0 -2.9468960388e+01 -5.3248740026e+02 +3.8739931508e+02 6.5915816037e+02 0.0000000000e+00 0.0000e+00 1.0000e+00
       13  1    1    2    0    0 +2.9468960388e+01 +5.3248740026e+02 +5.1732093751e+02 7.4298869672e+02 0.0000000000e+00 0.0000e+00 -1.0000e+00
<mgrwt>
<rscale>  0 0.10712129E+04</rscale>
<asrwt>0</asrwt>
<pdfrwt beam="1">  1        2 0.17745131E+00 0.10712129E+04</pdfrwt>
<pdfrwt beam="2">  1       -2 0.38263586E-01 0.10712129E+04</pdfrwt>
<totfact> 0.15835347E+02</totfact>
</mgrwt>
<rwgt>
<wgt id='morphing_basis_vector_1'> +1.6457596e-04 </wgt>
<wgt id='morphing_basis_vector_2'> +1.1365541e-04 </wgt>
<wgt id='morphing_basis_vector_3'> +1.6116660e-04 </wgt>
<wgt id='morphing_basis_vector_4'> +9.1675452e-05 </wgt>
<wgt id='morphing_basis_vector_5'> +1.5534235e-04 </wgt>
</rwgt>
</event>
<event>
 4      1 +7.8865000e-07 1.09869500e+03 7.81860800e-03 8.59570800e-02
        2 -1    0    0  501    0 +0.0000000000e+00 +0.0000000000e+00 +9.6634217837e+02 9.6634217837e+02 0.0000000000e+00 0.0000e+00 1.0000e+00
       -2 -1    0    0    0  501 -0.0000000000e+00 -0.0000000000e+00 -3.1229380582e+02 3.1229380582e+02 0.0000000000e+00 0.0000e+00 -1.0000e+00
      -13  1    1    2    0    0 -7.9562714176e+01 -4.0105921552e+02 -9.9947116863e+01 4.2091346618e+02 0.0000000000e+00 0.0000e+00 -1.0000e+00
       13  1    1    2    0    0 +7.9562714176e+01 +4.0105921552e+02 +7.5399548941e+02 8.5772251801e+02 0.0000000000e+00 0.0000e+00 1.0000e+00
<mgrwt>
<rscale>  0 0.10986950E+04</rscale>
<asrwt>0</asrwt>
<pdfrwt beam="1">  1        2 0.14866803E+00 0.10986950E+04</pdfrwt>
<pdfrwt beam="2">  1       -2 0.48045201E-01 0.10986950E+04</pdfrwt>
<totfact> 0.13349869E+02</totfact>
</mgrwt>
<rwgt>
<wgt id='morphing_basis_vector_1'> +1.7669607e-04 </wgt>
<wgt id='morphing_basis_vector_2'> +1.1256041e-04 </wgt>
<wgt id='morphing_basis_vector_3'> +1.7389038e-04 </wgt>
<wgt id='morphing_basis_vector_4'> +1.0906026e-04 </wgt>
<wgt id='morphing_basis_vector_5'> +1.7360295e-04 </wgt>
</rwgt>
</event>
<event>
 4      1 +7.8865000e-07 1.07062500e+03 7.81860800e-03 8.61993000e-02
        2 -1    0    0  501    0 +0.0000000000e+00 +0.0000000000e+00 +8.7968525663e+02 8.7968525663e+02 0.0000000000e+00 0.0000e+00 -1.0000e+00
       -2 -1    0    0    0  501 -0.0000000000e+00 -0.0000000000e+00 -3.2575201385e+02 3.2575201385e+02 0.0000000000e+00 0.0000e+00 1.0000e+00
      -13  1    1    2    0    0 -9.3575560291e+01 +4.7861778188e+02 +2.8426701206e+01 4.8850736326e+02 0.0000000000e+00 0.0000e+00 1.0000e+00
       13  1    1    2    0    0 +9.3575560291e+01 -4.7861778188e+02 +5.2550654158e+02 7.1692990722e+02 0.0000000000e+00 0.0000e+00 -1.0000e+00
<mgrwt>
<rscale>  0 0.10706246E+04</rscale>
<asrwt>0</asrwt>
<pdfrwt beam="1">  1        2 0.13533619E+00 0.10706246E+04</pdfrwt>
<pdfrwt beam="2">  1       -2 0.50115695E-01 0.10706246E+04</pdfrwt>
<totfact> 0.14013978E+02</totfact>
</mgrwt>
<rwgt>
<wgt id='morphing_basis_vector_1'> +1.6123404e-04 </wgt>
<wgt id='morphing_basis_vector_2'> +1.0434541e-04 </wgt>
<wgt id='morphing_basis_vector_3'> +1.5777341e-04 </wgt>
<wgt id='morphing_basis_vector_4'> +9.6311812e-05 </wgt>
<wgt id='morphing_basis_vector_5'> +1.5528237e-04 </wgt>
</rwgt>
</event>
<event>
 4      1 +7.8865000e-07 1.11411200e+03 7.81860800e-03 8.58272000e-02
        2 -1    0    0  501    0 +0.0000000000e+00 +0.0000000000e+00 +1.0652255950e+03 1.0652255950e+03 0.0000000000e+00 0.0000e+00 1.0000e+00
       -2 -1    0    0    0  501 -0.0000000000e+00 -0.0000000000e+00 -2.9131035750e+02 2.9131035750e+02 0.0000000000e+00 0.0000e+00 -1.0000e+00
      -13  1    1    2    0    0 +9.8924145122e+01 -2.3051826080e+02 -2.1864902886e+02 3.3276426021e+02 0.0000000000e+00 0.0000e+00 -1.0000e+00
       13  1    1    2    0    0 -9.8924145122e+01 +2.3051826080e+02 +9.9256426632e+02 1.0237716922e+03 0.0000000000e+00 0.0000e+00 1.0000e+00
<mgrwt>
<rscale>  0 0.11141118E+04</rscale>
<asrwt>0</asrwt>
<pdfrwt beam="1">  1        2 0.16388086E+00 0.11141118E+04</pdfrwt>
<pdfrwt beam="2">  1       -2 0.44816979E-01 0.11141118E+04</pdfrwt>
<totfact> 0.13244655E+02</totfact>
</mgrwt>
<rwgt>
<wgt id='morphing_basis_vector_1'> +1.8589932e-04 </wgt>
<wgt id='morphing_basis_vector_2'> +1.1799365e-04 </wgt>
<wgt id='morphing_basis_vector_3'> +1.8348859e-04 </wgt>
<wgt id='morphing_basis_vector_4'> +1.1617103e-04 </wgt>
<wgt id='morphing_basis_vector_5'> +1.8429016e-04 </wgt>
</rwgt>
</event>
<event>
 4      1 +7.8865000e-07 1.25518600e+03 7.81860800e-03 8.47322800e-02
        2 -1    0    0  501    0 +0.0000000000e+00 +0.0000000000e+00 +3.0775414685e+02 3.0775414685e+02 0.0000000000e+00 0.0000e+00 -1.0000e+00
       -2 -1    0    0    0  501 -0.0000000000e+00 -0.0000000000e+00 -1.2798292491e+03 1.2798292491e+03 0.0000000000e+00 0.0000e+00 1.0000e+00
      -13  1    1    2    0    0 -5.5163515488e+02 -2.0812295254e+02 -2.1400943342e+02 6.2722926037e+02 0.0000000000e+00 0.0000e+00 1.0000e+00
       13  1    1    2    0    0 +5.5163515488e+02 +2.0812295254e+02 -7.5806566887e+02 9.6035413561e+02 0.0000000000e+00 0.0000e+00 -1.0000e+00
<mgrwt>
<rscale>  0 0.12551857E+04</rscale>
<asrwt>0</asrwt>
<pdfrwt beam="1">  1        2 0.47346792E-01 0.12551857E+04</pdfrwt>
<pdfrwt beam="2">  1       -2 0.19689681E+00 0.12551857E+04</pdfrwt>
<totfact> 0.15910692E+01</totfact>
</mgrwt>
<rwgt>
<wgt id='morphing_basis_vector_1'> +3.2512777e-04 </wgt>
<wgt id='morphing_basis_vector_2'> +2.8811303e-04 </wgt>
<wgt id='morphing_basis_vector_3'> +3.3389769e-04 </wgt>
<wgt id='morphing_basis_vector_4'> +1.3363719e-04 </wgt>
<wgt id='morphing_basis_vector_5'> +3.0146943e-04 </wgt>
</rwgt>
</event>
<event>
 4      1 +7.8865000e-07 1.23710900e+03 7.81860800e-03 8.48638900e-02
        2 -1    0    0  501    0 +0.0000000000e+00 +0.0000000000e+00 +2.9546285037e+02 2.9546285037e+02 0.0000000000e+00 0.0000e+00 -1.0000e+00
       -2 -1    0    0    0  501 -0.0000000000e+00 -0.0000000000e+00 -1.2949508849e+03 1.2949508849e+03 0.0000000000e+00 0.0000e+00 1.0000e+00
      -13  1    1    2    0    0 +4.2346980398e+02 -7.5623128497e+01 -1.0711651779e+03 1.1543138095e+03 0.0000000000e+00 0.0000e+00 1.0000e+00
       13  1    1    2    0    0 -4.2346980398e+02 +7.5623128497e+01 +7.1677143311e+01 4.3609992584e+02 0.0000000000e+00 0.0000e+00 -1.0000e+00
<mgrwt>
<rscale>  0 0.12371093E+04</rscale>
<asrwt>0</asrwt>
<pdfrwt beam="1">  1        2 0.45455823E-01 0.12371093E+04</pdfrwt>
<pdfrwt beam="2">  1       -2 0.19922322E+00 0.12371093E+04</pdfrwt>
<totfact> 0.16040178E+01</totfact>
</mgrwt>
<rwgt>
<wgt id='morphing_basis_vector_1'> +2.7625863e-04 </wgt>
<wgt id='morphing_basis_vector_2'> +1.7811565e-04 </wgt>
<wgt id='morphing_basis_vector_3'> +2.7840150e-04 </wgt>
<wgt id='morphing_basis_vector_4'> +1.8045300e-04 </wgt>
<wgt id='morphing_basis_vector_5'> +2.8738618e-04 </wgt>
</rwgt>
</event>
<event>
 4      1 +7.8865000e-07 1.28756400e+03 7.81860800e-03 8.45022300e-02
        2 -1    0    0  501    0 +0.0000000000e+00 +0.0000000000e+00 +1.5573518574e+03 1.5573518574e+03 0.0000000000e+00 0.0000e+00 -1.0000e+00
       -2 -1    0    0    0  501 -0.0000000000e+00 -0.0000000000e+00 -2.6612810825e+02 2.6612810825e+02 0.0000000000e+00 0.0000e+00 1.0000e+00
      -13  1    1    2    0    0 +6.1685272307e+01 +4.2368839281e+02 -3.5264234929e+01 4.2960504337e+02 0.0000000000e+00 0.0000e+00 1.0000e+00
       13  1    1    2    0    0 -6.1685272307e+01 -4.2368839281e+02 +1.3264879840e+03 1.3938749222e+03 0.0000000000e+00 0.0000e+00 -1.0000e+00
<mgrwt>
<rscale>  0 0.12875638E+04</rscale>
<asrwt>0</asrwt>
<pdfrwt beam="1">  1        2 0.23959259E+00 0.12875638E+04</pdfrwt>
<pdfrwt beam="2">  1       -2 0.40942787E-01 0.12875638E+04</pdfrwt>
<totfact> 0.80930048E+01</totfact>
</mgrwt>
<rwgt>
<wgt id='morphing_basis_vector_1'> +3.2154302e-04 </wgt>
<wgt id='morphing_basis_vector_2'> +2.0799898e-04 </wgt>
<wgt id='morphing_basis_vector_3'> +3.2628647e-04 </wgt>
<wgt id='morphing_basis_vector_4'> +2.1355285e-04 </wgt>
<wgt id='morphing_basis_vector_5'> +3.4005315e-04 </wgt>
</rwgt>
</event>
<event>
 4      1 +7.8865000e-07 1.12924100e+03 7.81860800e-03 8.57018200e-02
        2 -1    0    0  501    0 +0.0000000000e+00 +0.0000000000e+00 +4.8923344059e+02 4.8923344059e+02 0.0000000000e+00 0.0000e+00 1.0000e+00
       -2 -1    0    0    0  501 -0.0000000000e+00 -0.0000000000e+00 -6.5162461914e+02 6.5162461914e+02 0.0000000000e+00 0.0000e+00 -1.0000e+00
      -13  1    1    2    0    0 -1.5696966756e+02 -2.8300521216e+01 -6.2839096006e+02 6.4831751073e+02 0.0000000000e+00 0.0000e+00 -1.0000e+00
       13  1    1    2    0    0 +1.5696966756e+02 +2.8300521216e+01 +4.6599978152e+02 4.9254054900e+02 0.0000000000e+00 0.0000e+00 1.0000e+00
<mgrwt>
<rscale>  0 0.11292414E+04</rscale>
<asrwt>0</asrwt>
<pdfrwt beam="1">  1        2 0.75266683E-01 0.11292414E+04</pdfrwt>
<pdfrwt beam="2">  1       -2 0.10024994E+00 0.11292414E+04</pdfrwt>
<totfact> 0.63312132E+01</totfact>
</mgrwt>
<rwgt>
<wgt id='morphing_basis_vector_1'> +1.9553302e-04 </wgt>
<wgt id='morphing_basis_vector_2'> +1.2426628e-04 </wgt>
<wgt id='morphing_basis_vector_3'> +1.9355070e-04 </wgt>
<wgt id='morphing_basis_vector_4'> +1.2306345e-04 </wgt>
<wgt id='morphing_basis_vector_5'> +1.9521394e-04 </wgt>
</rwgt>
</event>
<event>
 4      1 +7.8865000e-07 1.09471200e+03 7.81860800e-03 8.59910000e-02
        2 -1    0    0  501    0 +0.0000000000e+00 +0.0000000000e+00 +2.0245188743e+02 2.0245188743e+02 0.0000000000e+00 0.0000e+00 -1.0000e+00
       -2 -1    0    0    0  501 -0.0000000000e+00 -0.0000000000e+00 -1.4798500268e+03 1.4798500268e+03 0.0000000000e+00 0.0000e+00 1.0000e+00
      -13  1    1    2    0    0 +6.1503236687e+01 +3.4992870729e+02 -1.2785602211e+03 1.3270075310e+03 0.0000000000e+00 0.0000e+00 1.0000e+00
       13  1    1    2    0    0 -6.1503236687e+01 -3.4992870729e+02 +1.1620817680e+00 3.5529438321e+02 0.0000000000e+00 0.0000e+00 -1.0000e+00
<mgrwt>
<rscale>  0 0.10947117E+04</rscale>
<asrwt>0</asrwt>
<pdfrwt beam="1">  1        2 0.31146445E-01 0.10947117E+04</pdfrwt>
<pdfrwt beam="2">  1       -2 0.22766923E+00 0.10947117E+04</pdfrwt>
<totfact> 0.15633874E+01</totfact>
</mgrwt>
<rwgt>
<wgt id='morphing_basis_vector_1'> +1.7416406e-04 </wgt>
<wgt id='morphing_basis_vector_2'> +1.1054873e-04 </wgt>
<wgt id='morphing_basis_vector_3'> +1.7125228e-04 </wgt>
<wgt id='morphing_basis_vector_4'> +1.0762342e-04 </wgt>
<wgt id='morphing_basis_vector_5'> +1.7093961e-04 </wgt>
</rwgt>
</event>
<event>
 4      1 +7.8865000e-07 1.27681600e+03 7.81860800e-03 8.45778000e-02
        2 -1    0    0  501    0 +0.0000000000e+00 +0.0000000000e+00 +6.7636137693e+02 6.7636137693e+02 0.0000000000e+00 0.0000e+00 -1.0000e+00
       -2 -1    0    0    0  501 -0.0000000000e+00 -0.0000000000e+00 -6.0258467423e+02 6.0258467423e+02 0.0000000000e+00 0.0000e+00 1.0000e+00
      -13  1    1    2    0    0 +5.2854189488e+02 +2.1841140246e+02 -2.4731880727e+02 6.2307838014e+02 0.0000000000e+00 0.0000e+00 1.0000e+00
       13  1    1    2    0    0 -5.2854189488e+02 -2.1841140246e+02 +3.2109550997e+02 6.5586767102e+02 0.0000000000e+00 0.0000e+00 -1.0000e+00
<mgrwt>
<rscale>  0 0.12768164E+04</rscale>
<asrwt>0</asrwt>
<pdfrwt beam="1">  1        2 0.10405560E+00 0.12768164E+04</pdfrwt>
<pdfrwt beam="2">  1       -2 0.92705335E-01 0.12768164E+04</pdfrwt>
<totfact> 0.51595547E+01</totfact>
</mgrwt>
<rwgt>
<wgt id='morphing_basis_vector_1'> +3.1299446e-04 </wgt>
<wgt id='morphing_basis_vector_2'> +2.0595277e-04 </wgt>
<wgt id='morphing_basis_vector_3'> +3.1743344e-04 </wgt>
<wgt id='morphing_basis_vector_4'> +2.0343817e-04 </wgt>
<wgt id='morphing_basis_vector_5'> +3.2809260e-04 </wgt>
</rwgt>
</event>
<event>
 4      1 +7.8865000e-07 1.19118200e+03 7.81860800e-03 8.52092100e-02
        2 -1    0    0  501    0 +0.0000000000e+00 +0.0000000000e+00 +2.9694350550e+02 2.9694350550e+02 0.0000000000e+00 0.0000e+00 -1.0000e+00
       -2 -1    0    0    0  501 -0.0000000000e+00 -0.0000000000e+00 -1.1946005107e+03 1.1946005107e+03 0.0000000000e+00 0.0000e+00 1.0000e+00
      -13  1    1    2    0    0 +3.2699755423e+00 -5.4234695431e+02 -7.5701606467e+02 9.3124874966e+02 0.0000000000e+00 0.0000e+00 1.0000e+00
       13  1    1    2    0    0 -3.2699755423e+00 +5.4234695431e+02 -1.4064094059e+02 5.6029526658e+02 0.0000000000e+00 0.0000e+00 -1.0000e+00
<mgrwt>
<rscale>  0 0.11911824E+04</rscale>
<asrwt>0</asrwt>
<pdfrwt beam="1">  1        2 0.45683616E-01 0.11911824E+04</pdfrwt>
<pdfrwt beam="2">  1       -2 0.18378469E+00 0.11911824E+04</pdfrwt>
<totfact> 0.20841347E+01</totfact>
</mgrwt>
<rwgt>
<wgt id='morphing_basis_vector_1'> +2.4073796e-04 </wgt>
<wgt id='morphing_basis_vector_2'> +1.5778637e-04 </wgt>
<wgt id='morphing_basis_vector_3'> +2.4106894e-04 </wgt>
<wgt id='morphing_basis_vector_4'> +1.5153297e-04 </wgt>
<wgt id='morphing_basis_vector_5'> +2.4476090e-04 </wgt>
</rwgt>
</event>
<event>
 4      1 +7.8865000e-07 1.07847800e+03 7.81860800e-03 8.61307700e-02
        2 -1    0    0  501    0 +0.0000000000e+00 +0.0000000000e+00 +7.4513557854e+02 7.4513557854e+02 0.0000000000e+00 0.0000e+00 1.0000e+00
       -2 -1    0    0    0  501 -0.0000000000e+00 -0.0000000000e+00 -3.9023617895e+02 3.9023617895e+02 0.0000000000e+00 0.0000e+00 -1.0000e+00
      -13  1    1    2    0    0 -2.1013499311e+02 -3.5306521877e+02 -1.9021168544e+02 4.5276069762e+02 0.0000000000e+00 0.0000e+00 -1.0000e+00
       13  1    1    2    0    0 +2.1013499311e+02 +3.5306521877e+02 +5.4511108503e+02 6.8261105987e+02 0.0000000000e+00 0.0000e+00 1.0000e+00
<mgrwt>
<rscale>  0 0.10784783E+04</rscale>
<asrwt>0</asrwt>
<pdfrwt beam="1">  1        2 0.11463624E+00 0.10784783E+04</pdfrwt>
<pdfrwt beam="2">  1       -2 0.60036335E-01 0.10784783E+04</pdfrwt>
<totfact> 0.12083690E+02</totfact>
</mgrwt>
<rwgt>
<wgt id='morphing_basis_vector_1'> +1.6487971e-04 </wgt>
<wgt id='morphing_basis_vector_2'> +1.0487448e-04 </wgt>
<wgt id='morphing_basis_vector_3'> +1.6158562e-04 </wgt>
<wgt id='morphing_basis_vector_4'> +1.0068780e-04 </wgt>
<wgt id='morphing_basis_vector_5'> +1.6031623e-04 </wgt>
</rwgt>
</event>
<event>
 4      1 +7.8865000e-07 1.23401700e+03 7.81860800e-03 8.48866500e-02
        2 -1    0    0  501    0 +0.0000000000e+00 +0.0000000000e+00 +2.0814775032e+03 2.0814775032e+03 0.0000000000e+00 0.0000e+00 -1.0000e+00
       -2 -1    0    0    0  501 -0.0000000000e+00 -0.0000000000e+00 -1.8289859149e+02 1.8289859149e+02 0.0000000000e+00 0.0000e+00 1.0000e+00
      -13  1    1    2    0    0 +3.4057398565e+02 -1.7889247847e+02 +6.4109746153e+01 3.9000412575e+02 0.0000000000e+00 0.0000e+00 1.0000e+00
       13  1    1    2    0    0 -3.4057398565e+02 +1.7889247847e+02 +1.8344691656e+03 1.8743719690e+03 0.0000000000e+00 0.0000e+00 -1.0000e+00
<mgrwt>
<rscale>  0 0.12340167E+04</rscale>
<asrwt>0</asrwt>
<pdfrwt beam="1">  1        2 0.32022729E+00 0.12340167E+04</pdfrwt>
<pdfrwt beam="2">  1       -2 0.28138246E-01 0.12340167E+04</pdfrwt>
<totfact> 0.81903929E+01</totfact>
</mgrwt>
<rwgt>
<wgt id='morphing_basis_vector_1'> +2.7351805e-04 </wgt>
<wgt id='morphing_basis_vector_2'> +1.7599781e-04 </wgt>
<wgt id='morphing_basis_vector_3'> +2.7549565e-04 </wgt>
<wgt id='morphing_basis_vector_4'> +1.7878697e-04 </wgt>
<wgt id='morphing_basis_vector_5'> +2.8438311e-04 </wgt>
</rwgt>
</event>
<event>
 4      1 +7.8865000e-07 1.07049200e+03 7.81860800e-03 8.62004600e-02
        2 -1    0    0  501    0 +0.0000000000e+00 +0.0000000000e+00 +1.2635518152e+03 1.2635518152e+03 0.0000000000e+00 0.0000e+00 1.0000e+00
       -2 -1    0    0    0  501 -0.0000000000e+00 -0.0000000000e+00 -2.2673252320e+02 2.2673252320e+02 0.0000000000e+00 0.0000e+00 -1.0000e+00
      -13  1    1    2    0    0 +5.0084396937e+02 +1.8874592928e+02 +5.1240824382e+02 7.4096687903e+02 0.0000000000e+00 0.0000e+00 1.0000e+00
       13  1    1    2    0    0 -5.0084396937e+02 -1.8874592928e+02 +5.2441104821e+02 7.4931745940e+02 0.0000000000e+00 0.0000e+00 -1.0000e+00
<mgrwt>
<rscale>  0 0.10704920E+04</rscale>
<asrwt>0</asrwt>
<pdfrwt beam="1">  1        2 0.19439258E+00 0.10704920E+04</pdfrwt>
<pdfrwt beam="2">  1       -2 0.34881927E-01 0.10704920E+04</pdfrwt>
<totfact> 0.16187500E+02</totfact>
</mgrwt>
<rwgt>
<wgt id='morphing_basis_vector_1'> +1.6565754e-04 </wgt>
<wgt id='morphing_basis_vector_2'> +1.1787257e-04 </wgt>
<wgt id='morphing_basis_vector_3'> +1.6224694e-04 </wgt>
<wgt id='morphing_basis_vector_4'> +8.8999593e-05 </wgt>
<wgt id='morphing_basis_vector_5'> +1.5474176e-04 </wgt>
</rwgt>
</event>
<event>
 4      1 +7.8865000e-07 1.12628600e+03 7.81860800e-03 8.57261500e-02
        2 -1    0    0  501    0 +0.0000000000e+00 +0.0000000000e+00 +1.2505628345e+03 1.2505628345e+03 0.0000000000e+00 0.0000e+00 1.0000e+00
       -2 -1    0    0    0  501 -0.0000000000e+00 -0.0000000000e+00 -2.5358993717e+02 2.5358993717e+02 0.0000000000e+00 0.0000e+00 -1.0000e+00
      -13  1    1    2    0    0 +3.0591581895e+02 +3.5725544179e+02 +8.4882509315e+01 4.7793407428e+02 0.0000000000e+00 0.0000e+00 -1.0000e+00
       13  1    1    2    0    0 -3.0591581895e+02 -3.5725544179e+02 +9.1209038800e+02 1.0262186974e+03 0.0000000000e+00 0.0000e+00 1.0000e+00
<mgrwt>
<rscale>  0 0.11262862E+04</rscale>
<asrwt>0</asrwt>
<pdfrwt beam="1">  1        2 0.19239428E+00 0.11262862E+04</pdfrwt>
<pdfrwt beam="2">  1       -2 0.39013837E-01 0.11262862E+04</pdfrwt>
<totfact> 0.13356089E+02</totfact>
</mgrwt>
<rwgt>
<wgt id='morphing_basis_vector_1'> +1.9425953e-04 </wgt>
<wgt id='morphing_basis_vector_2'> +1.2494195e-04 </wgt>
<wgt id='morphing_basis_vector_3'> +1.9223425e-04 </wgt>
<wgt id='morphing_basis_vector_4'> +1.2063455e-04 </wgt>
<wgt id='morphing_basis_vector_5'> +1.9297459e-04 </wgt>
</rwgt>
</event>
<event>
 4      1 +7.8865000e-07 1.10689000e+03 7.81860800e-03 8.58877700e-02
        2 -1    0    0  501    0 +0.0000000000e+00 +0.0000000000e+00 +4.3845567568e+02 4.3845567568e+02 0.0000000000e+00 0.0000e+00 -1.0000e+00
       -2 -1    0    0    0  501 -0.0000000000e+00 -0.0000000000e+00 -6.9859122501e+02 6.9859122501e+02 0.0000000000e+00 0.0000e+00 1.0000e+00
      -13  1    1    2    0    0 -1.9680937980e+02 -2.9857999037e+02 -5.6397062998e+02 6.6779249329e+02 0.0000000000e+00 0.0000e+00 1.0000e+00
       13  1    1    2    0    0 +1.9680937980e+02 +2.9857999037e+02 +3.0383508065e+02 4.6925440739e+02 0.0000000000e+00 0.0000e+00 -1.0000e+00
<mgrwt>
<rscale>  0 0.11068899E+04</rscale>
<asrwt>0</asrwt>
<pdfrwt beam="1">  1        2 0.67454720E-01 0.11068899E+04</pdfrwt>
<pdfrwt beam="2">  1       -2 0.10747557E+00 0.11068899E+04</pdfrwt>
<totfact> 0.60544867E+01</totfact>
</mgrwt>
<rwgt>
<wgt id='morphing_basis_vector_1'> +1.8152845e-04 </wgt>
<wgt id='morphing_basis_vector_2'> +1.1537899e-04 </wgt>
<wgt id='morphing_basis_vector_3'> +1.7892903e-04 </wgt>
<wgt id='morphing_basis_vector_4'> +1.1282335e-04 </wgt>
<wgt id='morphing_basis_vector_5'> +1.7922695e-04 </wgt>
</rwgt>
</event>
<event>
 4      1 +7.8865000e-07 1.26041500e+03 7.81860800e-03 8.46946300e-02
        2 -1    0    0  501    0 +0.0000000000e+00 +0.0000000000e+00 +1.5423978983e+02 1.5423978983e+02 0.0000000000e+00 0.0000e+00 -1.0000e+00
       -2 -1    0    0    0  501 -0.0000000000e+00 -0.0000000000e+00 -2.5749620778e+03 2.5749620778e+03 0.0000000000e+00 0.0000e+00 1.0000e+00
      -13  1    1    2    0    0 -2.0557297729e+02 -5.2072363572e+02 -1.8369893199e+03 1.9204018109e+03 0.0000000000e+00 0.0000e+00 1.0000e+00
       13  1    1    2    0    0 +2.0557297729e+02 +5.2072363572e+02 -5.8373296804e+02 8.0880005673e+02 0.0000000000e+00 0.0000e+00 -1.0000e+00
<mgrwt>
<rscale>  0 0.12604152E+04</rscale>
<asrwt>0</asrwt>
<pdfrwt beam="1">  1        2 0.23729197E-01 0.12604152E+04</pdfrwt>
<pdfrwt beam="2">  1       -2 0.39614803E+00 0.12604152E+04</pdfrwt>
<totfact> 0.15962416E+00</totfact>
</mgrwt>
<rwgt>
<wgt id='morphing_basis_vector_1'> +2.9784723e-04 </wgt>
<wgt id='morphing_basis_vector_2'> +1.9544615e-04 </wgt>
<wgt id='morphing_basis_vector_3'> +3.0136623e-04 </wgt>
<wgt id='morphing_basis_vector_4'> +1.9291297e-04 </wgt>
<wgt id='morphing_basis_vector_5'> +3.1074175e-04 </wgt>
</rwgt>
</event>
<event>
 4      1 +7.8865000e-07 1.12665500e+03 7.81860800e-03 8.57231200e-02
        2 -1    0    0  501    0 +0.0000000000e+00 +0.0000000000e+00 +1.6712864051e+03 1.6712864051e+03 0.0000000000e+00 0.0000e+00 -1.0000e+00
       -2 -1    0    0    0  501 -0.0000000000e+00 -0.0000000000e+00 -1.8987629597e+02 1.8987629597e+02 0.0000000000e+00 0.0000e+00 1.0000e+00
      -13  1    1    2    0    0 +1.2617788536e+02 -4.6835573614e+02 +2.6749001536e+02 5.5392135060e+02 0.0000000000e+00 0.0000e+00 1.0000e+00
       13  1    1    2    0    0 -1.2617788536e+02 +4.6835573614e+02 +1.2139200938e+03 1.3072413505e+03 0.0000000000e+00 0.0000e+00 -1.0000e+00
<mgrwt>
<rscale>  0 0.11266546E+04</rscale>
<asrwt>0</asrwt>
<pdfrwt beam="1">  1        2 0.25712098E+00 0.11266546E+04</pdfrwt>
<pdfrwt beam="2">  1       -2 0.29211739E-01 0.11266546E+04</pdfrwt>
<totfact> 0.13079691E+02</totfact>
</mgrwt>
<rwgt>
<wgt id='morphing_basis_vector_1'> +1.9466372e-04 </wgt>
<wgt id='morphing_basis_vector_2'> +1.2559866e-04 </wgt>
<wgt id='morphing_basis_vector_3'> +1.9266069e-04 </wgt>
<wgt id='morphing_basis_vector_4'> +1.2052741e-04 </wgt>
<wgt id='morphing_basis_vector_5'> +1.9322604e-04 </wgt>
</rwgt>
</event>
<event>
 4      1 +7.8865000e-07 1.15352100e+03 7.81860800e-03 8.55048500e-02
        2 -1    0    0  501    0 +0.0000000000e+00 +0.0000000000e+00 +1.9764627687e+03 1.9764627687e+03 0.0000000000e+00 0.0000e+00 -1.0000e+00
       -2 -1    0    0    0  501 -0.0000000000e+00 -0.0000000000e+00 -1.6830707405e+02 1.6830707405e+02 0.0000000000e+00 0.0000e+00 1.0000e+00
      -13  1    1    2    0    0 +2.2756598361e+02 -2.4179703729e+02 +2.7232192778e+01 3.3315713479e+02 0.0000000000e+00 0.0000e+00 1.0000e+00
       13  1    1    2    0    0 -2.2756598361e+02 +2.4179703729e+02 +1.7809235018e+03 1.8116127079e+03 0.0000000000e+00 0.0000e+00 -1.0000e+00
<mgrwt>
<rscale>  0 0.11535210E+04</rscale>
<asrwt>0</asrwt>
<pdfrwt beam="1">  1        2 0.30407118E+00 0.11535210E+04</pdfrwt>
<pdfrwt beam="2">  1       -2 0.25893397E-01 0.11535210E+04</pdfrwt>
<totfact> 0.10911655E+02</totfact>
</mgrwt>
<rwgt>
<wgt id='morphing_basis_vector_1'> +2.1190471e-04 </wgt>
<wgt id='morphing_basis_vector_2'> +1.3521319e-04 </wgt>
<wgt id='morphing_basis_vector_3'> +2.1068829e-04 </wgt>
<wgt id='morphing_basis_vector_4'> +1.3455000e-04 </wgt>
<wgt id='morphing_basis_vector_5'> +2.1371510e-04 </wgt>
</rwgt>
</event>
<event>
 4      1 +7.8865000e-07 1.09772700e+03 7.81860800e-03 8.59653100e-02
        2 -1    0    0  501    0 +0.0000000000e+00 +0.0000000000e+00 +6.8863365063e+02 6.8863365063e+02 0.0000000000e+00 0.0000e+00 1.0000e+00
       -2 -1    0    0    0  501 -0.0000000000e+00 -0.0000000000e+00 -4.3746240793e+02 4.3746240793e+02 0.0000000000e+00 0.0000e+00 -1.0000e+00
      -13  1    1    2    0    0 -2.4283341835e+02 +1.0483601879e+02 -3.6777205758e+02 4.5300656313e+02 0.0000000000e+00 0.0000e+00 -1.0000e+00
       13  1    1    2    0    0 +2.4283341835e+02 -1.0483601879e+02 +6.1894330028e+02 6.7308949544e+02 0.0000000000e+00 0.0000e+00 1.0000e+00
<mgrwt>
<rscale>  0 0.10977274E+04</rscale>
<asrwt>0</asrwt>
<pdfrwt beam="1">  1        2 0.10594364E+00 0.10977274E+04</pdfrwt>
<pdfrwt beam="2">  1       -2 0.67301909E-01 0.10977274E+04</pdfrwt>
<totfact> 0.10489498E+02</totfact>
</mgrwt>
<rwgt>
<wgt id='morphing_basis_vector_1'> +1.7586805e-04 </wgt>
<wgt id='morphing_basis_vector_2'> +1.1143508e-04 </wgt>
<wgt id='morphing_basis_vector_3'> +1.7302785e-04 </wgt>
<wgt id='morphing_basis_vector_4'> +1.0905463e-04 </wgt>
<wgt id='morphing_basis_vector_5'> +1.7297532e-04 </wgt>
</rwgt>
</event>
<event>
 4      1 +7.8865000e-07 1.21492700e+03 7.81860800e-03 8.50286800e-02
        2 -1    0    0  501    0 +0.0000000000e+00 +0.0000000000e+00 +1.8376719227e+02 1.8376719227e+02 0.0000000000e+00 0.0000e+00 -1.0000e+00
       -2 -1    0    0    0  501 -0.0000000000e+00 -0.0000000000e+00 -2.0080389682e+03 2.0080389682e+03 0.0000000000e+00 0.0000e+00 1.0000e+00
      -13  1    1    2    0    0 -3.8006218885e+02 +2.8155557264e+02 -1.5997919239e+03 1.6682490845e+03 0.0000000000e+00 0.0000e+00 1.0000e+00
       13  1    1    2    0    0 +3.8006218885e+02 -2.8155557264e+02 -2.2447985197e+02 5.2355707599e+02 0.0000000000e+00 0.0000e+00 -1.0000e+00
<mgrwt>
<rscale>  0 0.12149266E+04</rscale>
<asrwt>0</asrwt>
<pdfrwt beam="1">  1        2 0.28271875E-01 0.12149266E+04</pdfrwt>
<pdfrwt beam="2">  1       -2 0.30892907E+00 0.12149266E+04</pdfrwt>
<totfact> 0.48123115E+00</totfact>
</mgrwt>
<rwgt>
<wgt id='morphing_basis_vector_1'> +2.5820152e-04 </wgt>
<wgt id='morphing_basis_vector_2'> +1.6676364e-04 </wgt>
<wgt id='morphing_basis_vector_3'> +2.5937952e-04 </wgt>
<wgt id='morphing_basis_vector_4'> +1.6676756e-04 </wgt>
<wgt id='morphing_basis_vector_5'> +2.6621887e-04 </wgt>
</rwgt>
</event>
<event>
 4      1 +7.8865000e-07 1.11203500e+03 7.81860800e-03 8.58445700e-02
        2 -1    0    0  501    0 +0.0000000000e+00 +0.0000000000e+00 +6.1760435258e+02 6.1760435258e+02 0.0000000000e+00 0.0000e+00 -1.0000e+00
       -2 -1    0    0    0  501 -0.0000000000e+00 -0.0000000000e+00 -5.0057172680e+02 5.0057172680e+02 0.0000000000e+00 0.0000e+00 1.0000e+00
      -13  1    1    2    0    0 +3.2008552592e+00 -1.6437289183e+02 -4.7557298415e+02 5.0318819173e+02 0.0000000000e+00 0.0000e+00 1.0000e+00
       13  1    1    2    0    0 -3.2008552592e+00 +1.6437289183e+02 +5.9260560993e+02 6.1498788766e+02 0.0000000000e+00 0.0000e+00 -1.0000e+00
<mgrwt>
<rscale>  0 0.11120347E+04</rscale>
<asrwt>0</asrwt>
<pdfrwt beam="1">  1        2 0.95016054E-01 0.11120347E+04</pdfrwt>
<pdfrwt beam="2">  1       -2 0.77011035E-01 0.11120347E+04</pdfrwt>
<totfact> 0.89198259E+01</totfact>
</mgrwt>
<rwgt>
<wgt id='morphing_basis_vector_1'> +1.8458317e-04 </wgt>
<wgt id='morphing_basis_vector_2'> +1.1708377e-04 </wgt>
<wgt id='morphing_basis_vector_3'> +1.8211486e-04 </wgt>
<wgt id='morphing_basis_vector_4'> +1.1528473e-04 </wgt>
<wgt id='morphing_basis_vector_5'> +1.8282875e-04 </wgt>
</rwgt>
</event>
<event>
 4      1 +7.8865000e-07 1.16188500e+03 7.81860800e-03 8.54381700e-02
        2 -1    0    0  501    0 +0.0000000000e+00 +0.0000000000e+00 +8.2867274815e+02 8.2867274815e+02 0.0000000000e+00 0.0000e+00 1.0000e+00
       -2 -1    0    0    0  501 -0.0000000000e+00 -0.0000000000e+00 -4.0727082979e+02 4.0727082979e+02 0.0000000000e+00 0.0000e+00 -1.0000e+00
      -13  1    1    2    0    0 -3.2357971919e+02 -1.6728399240e+02 -2.7070039041e+02 4.5383528967e+02 0.0000000000e+00 0.0000e+00 -1.0000e+00
       13  1    1    2    0    0 +3.2357971919e+02 +1.6728399240e+02 +6.9210230876e+02 7.8210828827e+02 0.0000000000e+00 0.0000e+00 1.0000e+00
<mgrwt>
<rscale>  0 0.11618851E+04</rscale>
<asrwt>0</asrwt>
<pdfrwt beam="1">  1        2 0.12748811E+00 0.11618851E+04</pdfrwt>
<pdfrwt beam="2">  1       -2 0.62657051E-01 0.11618851E+04</pdfrwt>
<totfact> 0.96042064E+01</totfact>
</mgrwt>
<rwgt>
<wgt id='morphing_basis_vector_1'> +2.1779931e-04 </wgt>
<wgt id='morphing_basis_vector_2'> +1.3920423e-04 </wgt>
<wgt id='morphing_basis_vector_3'> +2.1686999e-04 </wgt>
<wgt id='morphing_basis_vector_4'> +1.3865243e-04 </wgt>
<wgt id='morphing_basis_vector_5'> +2.2037497e-04 </wgt>
</rwgt>
</event>
<event>
 4      1 +7.8865000e-07 1.13357900e+03 7.81860800e-03 8.56662500e-02
        2 -1    0    0  501    0 +0.0000000000e+00 +0.0000000000e+00 +6.4927692626e+02 6.4927692626e+02 0.0000000000e+00 0.0000e+00 1.0000e+00
       -2 -1    0    0    0  501 -0.0000000000e+00 -0.0000000000e+00 -4.9478185612e+02 4.9478185612e+02 0.0000000000e+00 0.0000e+00 -1.0000e+00
      -13  1    1    2    0    0 +2.9347498659e+02 -1.3036063362e+02 -3.9411293762e+02 5.0837630762e+02 0.0000000000e+00 0.0000e+00 -1.0000e+00
       13  1    1    2    0    0 -2.9347498659e+02 +1.3036063362e+02 +5.4860800775e+02 6.3568247476e+02 0.0000000000e+00 0.0000e+00 1.0000e+00
<mgrwt>
<rscale>  0 0.11335792E+04</rscale>
<asrwt>0</asrwt>
<pdfrwt beam="1">  1        2 0.99888757E-01 0.11335792E+04</pdfrwt>
<pdfrwt beam="2">  1       -2 0.76120286E-01 0.11335792E+04</pdfrwt>
<totfact> 0.86098496E+01</totfact>
</mgrwt>
<rwgt>
<wgt id='morphing_basis_vector_1'> +1.9844068e-04 </wgt>
<wgt id='morphing_basis_vector_2'> +1.2634050e-04 </wgt>
<wgt id='morphing_basis_vector_3'> +1.9659276e-04 </wgt>
<wgt id='morphing_basis_vector_4'> +1.2496663e-04 </wgt>
<wgt id='morphing_basis_vector_5'> +1.9842331e-04 </wgt>
</rwgt>
</event>
<event>
 4      1 +7.8865000e-07 1.15742500e+03 7.81860800e-03 8.54736600e-02
        2 -1    0    0  501    0 +0.0000000000e+00 +0.0000000000e+00 +2.4451909497e+03 2.4451909497e+03 0.0000000000e+00 0.0000e+00 1.0000e+00
       -2 -1    0    0    0  501 -0.0000000000e+00 -0.0000000000e+00 -1.3696594746e+02 1.3696594746e+02 0.0000000000e+00 0.0000e+00 -1.0000e+00
      -13  1    1    2    0    0 -3.7449773792e+02 +2.8174245691e+02 +3.9663817716e+02 6.1396189728e+02 0.0000000000e+00 0.0000e+00 -1.0000e+00
       13  1    1    2    0    0 +3.7449773792e+02 -2.8174245691e+02 +1.9115868251e+03 1.9681949999e+03 0.0000000000e+00 0.0000e+00 1.0000e+00
<mgrwt>
<rscale>  0 0.11574245E+04</rscale>
<asrwt>0</asrwt>
<pdfrwt beam="1">  1        2 0.37618319E+00 0.11574245E+04</pdfrwt>
<pdfrwt beam="2">  1       -2 0.21071686E-01 0.11574245E+04</pdfrwt>
<totfact> 0.83791578E+01</totfact>
</mgrwt>
<rwgt>
<wgt id='morphing_basis_vector_1'> +2.1510975e-04 </wgt>
<wgt id='morphing_basis_vector_2'> +1.3847700e-04 </wgt>
<wgt id='morphing_basis_vector_3'> +2.1407094e-04 </wgt>
<wgt id='morphing_basis_vector_4'> +1.3566213e-04 </wgt>
<wgt id='morphing_basis_vector_5'> +2.1675202e-04 </wgt>
</rwgt>
</event>
<event>
 4      1 +7.8865000e-07 1.17446100e+03 7.81860800e-03 8.53390300e-02
        2 -1    0    0  501    0 +0.0000000000e+00 +0.0000000000e+00 +1.4326870452e+03 1.4326870452e+03 0.0000000000e+00 0.0000e+00 1.0000e+00
       -2 -1    0    0    0  501 -0.0000000000e+00 -0.0000000000e+00 -2.4069447967e+02 2.4069447967e+02 0.0000000000e+00 0.0000e+00 -1.0000e+00
      -13  1    1    2    0    0 -4.7481940283e+02 -1.2848009569e+02 +1.3899211200e+02 5.1115497405e+02 0.0000000000e+00 0.0000e+00 -1.0000e+00
       13  1    1    2    0    0 +4.7481940283e+02 +1.2848009569e+02 +1.0530004536e+03 1.1622265509e+03 0.0000000000e+00 0.0000e+00 1.0000e+00
<mgrwt>
<rscale>  0 0.11744613E+04</rscale>
<asrwt>0</asrwt>
<pdfrwt beam="1">  1        2 0.22041339E+00 0.11744613E+04</pdfrwt>
<pdfrwt beam="2">  1       -2 0.37029921E-01 0.11744613E+04</pdfrwt>
<totfact> 0.11549503E+02</totfact>
</mgrwt>
<rwgt>
<wgt id='morphing_basis_vector_1'> +2.2745940e-04 </wgt>
<wgt id='morphing_basis_vector_2'> +1.4706113e-04 </wgt>
<wgt id='morphing_basis_vector_3'> +2.2704591e-04 </wgt>
<wgt id='morphing_basis_vector_4'> +1.4403895e-04 </wgt>
<wgt id='morphing_basis_vector_5'> +2.3061030e-04 </wgt>
</rwgt>
</event>
<event>
 4      1 +7.8865000e-07 1.28813200e+03 7.81860800e-03 8.44982600e-02
        2 -1    0    0  501    0 +0.0000000000e+00 +0.0000000000e+00 +2.0467124454e+03 2.0467124454e+03 0.0000000000e+00 0.0000e+00 1.0000e+00
       -2 -1    0    0    0  501 -0.0000000000e+00 -0.0000000000e+00 -2.0267662825e+02 2.0267662825e+02 0.0000000000e+00 0.0000e+00 -1.0000e+00
      -13  1    1    2    0    0 -2.4634347847e+02 +5.8378717984e+02 +7.2041813879e+02 9.5942424164e+02 0.0000000000e+00 0.0000e+00 1.0000e+00
       13  1    1    2    0    0 +2.4634347847e+02 -5.8378717984e+02 +1.1236176784e+03 1.2899648321e+03 0.0000000000e+00 0.0000e+00 -1.0000e+00
<mgrwt>
<rscale>  0 0.12881316E+04</rscale>
<asrwt>0</asrwt>
<pdfrwt beam="1">  1        2 0.31487882E+00 0.12881316E+04</pdfrwt>
<pdfrwt beam="2">  1       -2 0.31181021E-01 0.12881316E+04</pdfrwt>
<totfact> 0.71121514E+01</totfact>
</mgrwt>
<rwgt>
<wgt id='morphing_basis_vector_1'> +3.2775343e-04 </wgt>
<wgt id='morphing_basis_vector_2'> +2.2534341e-04 </wgt>
<wgt id='morphing_basis_vector_3'> +3.3363701e-04 </wgt>
<wgt id='morphing_basis_vector_4'> +2.0391405e-04 </wgt>
<wgt id='morphing_basis_vector_5'> +3.3997924e-04 </wgt>
</rwgt>
</event>
<event>
 4      1 +7.8865000e-07 1.07587700e+03 7.81860800e-03 8.61534000e-02
        2 -1    0    0  501    0 +0.0000000000e+00 +0.0000000000e+00 +1.2298361257e+03 1.2298361257e+03 0.0000000000e+00 0.0000e+00 -1.0000e+00
       -2 -1    0    0    0  501 -0.0000000000e+00 -0.0000000000e+00 -2.3529794639e+02 2.3529794639e+02 0.0000000000e+00 0.0000e+00 1.0000e+00
      -13  1    1    2    0    0 -1.8573111525e+01 +3.0360731747e+02 -1.0694175226e+02 3.2242658400e+02 0.0000000000e+00 0.0000e+00 1.0000e+00
       13  1    1    2    0    0 +1.8573111525e+01 -3.0360731747e+02 +1.1014799316e+03 1.1427074881e+03 0.0000000000e+00 0.0000e+00 -1.0000e+00
<mgrwt>
<rscale>  0 0.10758772E+04</rscale>
<asrwt>0</asrwt>
<pdfrwt beam="1">  1        2 0.18920556E+00 0.10758772E+04</pdfrwt>
<pdfrwt beam="2">  1       -2 0.36199685E-01 0.10758772E+04</pdfrwt>
<totfact> 0.15816730E+02</totfact>
</mgrwt>
<rwgt>
<wgt id='morphing_basis_vector_1'> +1.6316395e-04 </wgt>
<wgt id='morphing_basis_vector_2'> +1.0318922e-04 </wgt>
<wgt id='morphing_basis_vector_3'> +1.5980657e-04 </wgt>
<wgt id='morphing_basis_vector_4'> +1.0003573e-04 </wgt>
<wgt id='morphing_basis_vector_5'> +1.5868727e-04 </wgt>
</rwgt>
</event>
<event>
 4      1 +7.8865000e-07 1.20216200e+03 7.81860800e-03 8.51251900e-02
        2 -1    0    0  501    0 +0.0000000000e+00 +0.0000000000e+00 +1.8699570944e+03 1.8699570944e+03 0.0000000000e+00 0.0000e+00 1.0000e+00
       -2 -1    0    0    0  501 -0.0000000000e+00 -0.0000000000e+00 -1.9321206845e+02 1.9321206845e+02 0.0000000000e+00 0.0000e+00 -1.0000e+00
      -13  1    1    2    0    0 -2.3467839797e+02 -3.0925841227e+02 +5.0811642625e+01 3.9153101929e+02 0.0000000000e+00 0.0000e+00 -1.0000e+00
       13  1    1    2    0    0 +2.3467839797e+02 +3.0925841227e+02 +1.6259333834e+03 1.6716381436e+03 0.0000000000e+00 0.0000e+00 1.0000e+00
<mgrwt>
<rscale>  0 0.12021618E+04</rscale>
<asrwt>0</asrwt>
<pdfrwt beam="1">  1        2 0.28768570E+00 0.12021618E+04</pdfrwt>
<pdfrwt beam="2">  1       -2 0.29724935E-01 0.12021618E+04</pdfrwt>
<totfact> 0.97864130E+01</totfact>
</mgrwt>
<rwgt>
<wgt id='morphing_basis_vector_1'> +2.4774141e-04 </wgt>
<wgt id='morphing_basis_vector_2'> +1.5902385e-04 </wgt>
<wgt id='morphing_basis_vector_3'> +2.4833223e-04 </wgt>
<wgt id='morphing_basis_vector_4'> +1.6008553e-04 </wgt>
<wgt id='morphing_basis_vector_5'> +2.5462920e-04 </wgt>
</rwgt>
</event>
<event>
 4      1 +7.8865000e-07 1.24709200e+03 7.81860800e-03 8.47909200e-02
        2 -1    0    0  501    0 +0.0000000000e+00 +0.0000000000e+00 +9.0282280769e+02 9.0282280769e+02 0.0000000000e+00 0.0000e+00 1.0000e+00
       -2 -1    0    0    0  501 -0.0000000000e+00 -0.0000000000e+00 -4.3065989313e+02 4.3065989313e+02 0.0000000000e+00 0.0000e+00 -1.0000e+00
      -13  1    1    2    0    0 +2.3815430992e+02 -1.0360210354e+01 +8.5217689384e+02 8.8488997491e+02 0.0000000000e+00 0.0000e+00 1.0000e+00
       13  1    1    2    0    0 -2.3815430992e+02 +1.0360210354e+01 -3.8001397928e+02 4.4859272591e+02 0.0000000000e+00 0.0000e+00 -1.0000e+00
<mgrwt>
<rscale>  0 0.12470919E+04</rscale>
<asrwt>0</asrwt>
<pdfrwt beam="1">  1        2 0.13889582E+00 0.12470919E+04</pdfrwt>
<pdfrwt beam="2">  1       -2 0.66255368E-01 0.12470919E+04</pdfrwt>
<totfact> 0.75787176E+01</totfact>
</mgrwt>
<rwgt>
<wgt id='morphing_basis_vector_1'> +3.8779289e-04 </wgt>
<wgt id='morphing_basis_vector_2'> +4.9265521e-04 </wgt>
<wgt id='morphing_basis_vector_3'> +4.0762939e-04 </wgt>
<wgt id='morphing_basis_vector_4'> +6.8806172e-06 </wgt>
<wgt id='morphing_basis_vector_5'> +2.8485810e-04 </wgt>
</rwgt>
</event>
<event>
 4      1 +7.8865000e-07 1.15424800e+03 7.81860800e-03 8.54990300e-02
        2 -1    0    0  501    0 +0.0000000000e+00 +0.0000000000e+00 +5.7444986270e+02 5.7444986270e+02 0.0000000000e+00 0.0000e+00 -1.0000e+00
       -2 -1    0    0    0  501 -0.0000000000e+00 -0.0000000000e+00 -5.7981074790e+02 5.7981074790e+02 0.0000000000e+00 0.0000e+00 1.0000e+00
      -13  1    1    2    0    0 +1.2462612210e+02 -8.7371386602e+01 -5.5937915832e+02 5.7971585477e+02 0.0000000000e+00 0.0000e+00 1.0000e+00
       13  1    1    2    0    0 -1.2462612210e+02 +8.7371386602e+01 +5.5401827312e+02 5.7454475583e+02 0.0000000000e+00 0.0000e+00 -1.0000e+00
<mgrwt>
<rscale>  0 0.11542482E+04</rscale>
<asrwt>0</asrwt>
<pdfrwt beam="1">  1        2 0.88376902E-01 0.11542482E+04</pdfrwt>
<pdfrwt beam="2">  1       -2 0.89201653E-01 0.11542482E+04</pdfrwt>
<totfact> 0.69219122E+01</totfact>
</mgrwt>
<rwgt>
<wgt id='morphing_basis_vector_1'> +2.1232585e-04 </wgt>
<wgt id='morphing_basis_vector_2'> +1.3529663e-04 </wgt>
<wgt id='morphing_basis_vector_3'> +2.1112587e-04 </wgt>
<wgt id='morphing_basis_vector_4'> +1.3504858e-04 </wgt>
<wgt id='morphing_basis_vector_5'> +2.1429781e-04 </wgt>
</rwgt>
</event>
<event>
 4      1 +7.8865000e-07 1.18329000e+03 7.81860800e-03 8.52702000e-02
        2 -1    0    0  501    0 +0.0000000000e+00 +0.0000000000e+00 +5.0389240000e+02 5.0389240000e+02 0.0000000000e+00 0.0000e+00 -1.0000e+00
       -2 -1    0    0    0  501 -0.0000000000e+00 -0.0000000000e+00 -6.9467995213e+02 6.9467995213e+02 0.0000000000e+00 0.0000e+00 1.0000e+00
      -13  1    1    2    0    0 +1.6009059962e+02 +1.8415148321e+01 -6.7202252907e+02 6.9107336611e+02 0.0000000000e+00 0.0000e+00 1.0000e+00
       13  1    1    2    0    0 -1.6009059962e+02 -1.8415148321e+01 +4.8123497694e+02 5.0749898602e+02 0.0000000000e+00 0.0000e+00 -1.0000e+00
<mgrwt>
<rscale>  0 0.11832902E+04</rscale>
<asrwt>0</asrwt>
<pdfrwt beam="1">  1        2 0.77521908E-01 0.11832902E+04</pdfrwt>
<pdfrwt beam="2">  1       -2 0.10687384E+00 0.11832902E+04</pdfrwt>
<totfact> 0.52117895E+01</totfact>
</mgrwt>
<rwgt>
<wgt id='morphing_basis_vector_1'> +2.3319171e-04 </wgt>
<wgt id='morphing_basis_vector_2'> +1.4902818e-04 </wgt>
<wgt id='morphing_basis_vector_3'> +2.3301945e-04 </wgt>
<wgt id='morphing_basis_vector_4'> +1.5002084e-04 </wgt>
<wgt id='morphing_basis_vector_5'> +2.3814344e-04 </wgt>
</rwgt>
</event>
<event>
 4      1 +7.8865000e-07 1.28842900e+03 7.81860800e-03 8.44961900e-02
        2 -1    0    0  501    0 +0.0000000000e+00 +0.0000000000e+00 +1.7726311334e+03 1.7726311334e+03 0.0000000000e+00 0.0000e+00 1.0000e+00
       -2 -1    0    0    0  501 -0.0000000000e+00 -0.0000000000e+00 -2.3412205111e+02 2.3412205111e+02 0.0000000000e+00 0.0000e+00 -1.0000e+00
      -13  1    1    2    0    0 -3.8560445552e+02 +5.7391993995e+01 -2.9538208837e+01 3.9096949097e+02 0.0000000000e+00 0.0000e+00 -1.0000e+00
       13  1    1    2    0    0 +3.8560445552e+02 -5.7391993995e+01 +1.5680472912e+03 1.6157836936e+03 0.0000000000e+00 0.0000e+00 1.0000e+00
<mgrwt>
<rscale>  0 0.12884286E+04</rscale>
<asrwt>0</asrwt>
<pdfrwt beam="1">  1        2 0.27271247E+00 0.12884286E+04</pdfrwt>
<pdfrwt beam="2">  1       -2 0.36018778E-01 0.12884286E+04</pdfrwt>
<totfact> 0.77930515E+01</totfact>
</mgrwt>
<rwgt>
<wgt id='morphing_basis_vector_1'> +3.2226214e-04 </wgt>
<wgt id='morphing_basis_vector_2'> +2.0823251e-04 </wgt>
<wgt id='morphing_basis_vector_3'> +3.2703413e-04 </wgt>
<wgt id='morphing_basis_vector_4'> +2.1433959e-04 </wgt>
<wgt id='morphing_basis_vector_5'> +3.4102648e-04 </wgt>
</rwgt>
</event>
<event>
 4      1 +7.8865000e-07 1.14042300e+03 7.81860800e-03 8.56104700e-02
        2 -1    0    0  501    0 +0.0000000000e+00 +0.0000000000e+00 +6.7612371381e+02 6.7612371381e+02 0.0000000000e+00 0.0000e+00 1.0000e+00
       -2 -1    0    0    0  501 -0.0000000000e+00 -0.0000000000e+00 -4.8088997609e+02 4.8088997609e+02 0.0000000000e+00 0.0000e+00 -1.0000e+00
      -13  1    1    2    0    0 +3.6856747354e+02 +1.9614923755e+02 -2.9639441719e+02 5.1202163673e+02 0.0000000000e+00 0.0000e+00 -1.0000e+00
       13  1    1    2    0    0 -3.6856747354e+02 -1.9614923755e+02 +4.9162815492e+02 6.4499205317e+02 0.0000000000e+00 0.0000e+00 1.0000e+00
<mgrwt>
<rscale>  0 0.11404229E+04</rscale>
<asrwt>0</asrwt>
<pdfrwt beam="1">  1        2 0.10401903E+00 0.11404229E+04</pdfrwt>
<pdfrwt beam="2">  1       -2 0.73983073E-01 0.11404229E+04</pdfrwt>
<totfact> 0.87252785E+01</totfact>
</mgrwt>
<rwgt>
<wgt id='morphing_basis_vector_1'> +2.0319807e-04 </wgt>
<wgt id='morphing_basis_vector_2'> +1.2997474e-04 </wgt>
<wgt id='morphing_basis_vector_3'> +2.0157741e-04 </wgt>
<wgt id='morphing_basis_vector_4'> +1.2784076e-04 </wgt>
<wgt id='morphing_basis_vector_5'> +2.0355394e-04 </wgt>
</rwgt>
</event>
<event>
 4      1 +7.8865000e-07 1.11689100e+03 7.81860800e-03 8.58040100e-02
        2 -1    0    0  501    0 +0.0000000000e+00 +0.0000000000e+00 +4.0918370924e+02 4.0918370924e+02 0.0000000000e+00 0.0000e+00 -1.0000e+00
       -2 -1    0    0    0  501 -0.0000000000e+00 -0.0000000000e+00 -7.6215538912e+02 7.6215538912e+02 0.0000000000e+00 0.0000e+00 1.0000e+00
      -13  1    1    2    0    0 -4.2915933965e+02 +3.4794599159e+01 -5.4945327161e+02 6.9805966839e+02 0.0000000000e+00 0.0000e+00 1.0000e+00
       13  1    1    2    0    0 +4.2915933965e+02 -3.4794599159e+01 +1.9648159174e+02 4.7327942997e+02 0.0000000000e+00 0.0000e+00 -1.0000e+00
<mgrwt>
<rscale>  0 0.11168913E+04</rscale>
<asrwt>0</asrwt>
<pdfrwt beam="1">  1        2 0.62951340E-01 0.11168913E+04</pdfrwt>
<pdfrwt beam="2">  1       -2 0.11725468E+00 0.11168913E+04</pdfrwt>
<totfact> 0.52484493E+01</totfact>
</mgrwt>
<rwgt>
<wgt id='morphing_basis_vector_1'> +1.8798745e-04 </wgt>
<wgt id='morphing_basis_vector_2'> +1.2017043e-04 </wgt>
<wgt id='morphing_basis_vector_3'> +1.8567344e-04 </wgt>
<wgt id='morphing_basis_vector_4'> +1.1684282e-04 </wgt>
<wgt id='morphing_basis_vector_5'> +1.8622531e-04 </wgt>
</rwgt>
</event>
<event>
 4      1 +7.8865000e-07 1.13330900e+03 7.81860800e-03 8.56684600e-02
        2 -1    0    0  501    0 +0.0000000000e+00 +0.0000000000e+00 +8.9224398640e+02 8.9224398640e+02 0.0000000000e+00 0.0000e+00 1.0000e+00
       -2 -1    0    0    0  501 -0.0000000000e+00 -0.0000000000e+00 -3.5987597830e+02 3.5987597830e+02 0.0000000000e+00 0.0000e+00 -1.0000e+00
      -13  1    1    2    0    0 -1.2972412102e+00 -2.4109670623e+02 -3.0038008956e+02 3.8517204311e+02 0.0000000000e+00 0.0000e+00 -1.0000e+00
       13  1    1    2    0    0 +1.2972412102e+00 +2.4109670623e+02 +8.3274809767e+02 8.6694792159e+02 0.0000000000e+00 0.0000e+00 1.0000e+00
<mgrwt>
<rscale>  0 0.11333087E+04</rscale>
<asrwt>0</asrwt>
<pdfrwt beam="1">  1        2 0.13726830E+00 0.11333087E+04</pdfrwt>
<pdfrwt beam="2">  1       -2 0.55365536E-01 0.11333087E+04</pdfrwt>
<totfact> 0.11232783E+02</totfact>
</mgrwt>
<rwgt>
<wgt id='morphing_basis_vector_1'> +1.9820895e-04 </wgt>
<wgt id='morphing_basis_vector_2'> +1.2606140e-04 </wgt>
<wgt id='morphing_basis_vector_3'> +1.9634886e-04 </wgt>
<wgt id='morphing_basis_vector_4'> +1.2492988e-04 </wgt>
<wgt id='morphing_basis_vector_5'> +1.9822750e-04 </wgt>
</rwgt>
</event>
<event>
 4      1 +7.8865000e-07 1.11482700e+03 7.81860800e-03 8.58212300e-02
        2 -1    0    0  501    0 +0.0000000000e+00 +0.0000000000e+00 +1.5022444288e+03 1.5022444288e+03 0.0000000000e+00 0.0000e+00 -1.0000e+00
       -2 -1    0    0    0  501 -0.0000000000e+00 -0.0000000000e+00 -2.0683050067e+02 2.0683050067e+02 0.0000000000e+00 0.0000e+00 1.0000e+00
      -13  1    1    2    0    0 +3.6640837766e+02 +1.8744051611e+02 +7.1396181935e+01 4.1771576591e+02 0.0000000000e+00 0.0000e+00 1.0000e+00
       13  1    1    2    0    0 -3.6640837766e+02 -1.8744051611e+02 +1.2240177462e+03 1.2913591635e+03 0.0000000000e+00 0.0000e+00 -1.0000e+00
<mgrwt>
<rscale>  0 0.11148273E+04</rscale>
<asrwt>0</asrwt>
<pdfrwt beam="1">  1        2 0.23111452E+00 0.11148273E+04</pdfrwt>
<pdfrwt beam="2">  1       -2 0.31820078E-01 0.11148273E+04</pdfrwt>
<totfact> 0.13959323E+02</totfact>
</mgrwt>
<rwgt>
<wgt id='morphing_basis_vector_1'> +1.8660342e-04 </wgt>
<wgt id='morphing_basis_vector_2'> +1.1905871e-04 </wgt>
<wgt id='morphing_basis_vector_3'> +1.8422685e-04 </wgt>
<wgt id='morphing_basis_vector_4'> +1.1606596e-04 </wgt>
<wgt id='morphing_basis_vector_5'> +1.8476886e-04 </wgt>
</rwgt>
</event>
<event>
 4      1 +7.8865000e-07 1.09209500e+03 7.81860800e-03 8.60133600e-02
        2 -1    0    0  501    0 +0.0000000000e+00 +0.0000000000e+00 +2.1715862524e+03 2.1715862524e+03 0.0000000000e+00 0.0000e+00 -1.0000e+00
       -2 -1    0    0    0  501 -0.0000000000e+00 -0.0000000000e+00 -1.3730415156e+02 1.3730415156e+02 0.0000000000e+00 0.0000e+00 1.0000e+00
      -13  1    1    2    0    0 -3.3751757750e+01 +5.4300232351e+02 +9.1849436941e+02 1.0675310820e+03 0.0000000000e+00 0.0000e+00 1.0000e+00
       13  1    1    2    0    0 +3.3751757750e+01 -5.4300232351e+02 +1.1157877314e+03 1.2413593219e+03 0.0000000000e+00 0.0000e+00 -1.0000e+00
<mgrwt>
<rscale>  0 0.10920949E+04</rscale>
<asrwt>0</asrwt>
<pdfrwt beam="1">  1        2 0.33409017E+00 0.10920949E+04</pdfrwt>
<pdfrwt beam="2">  1       -2 0.21123717E-01 0.10920949E+04</pdfrwt>
<totfact> 0.12057709E+02</totfact>
</mgrwt>
<rwgt>
<wgt id='morphing_basis_vector_1'> +1.7701181e-04 </wgt>
<wgt id='morphing_basis_vector_2'> +1.2280023e-04 </wgt>
<wgt id='morphing_basis_vector_3'> +1.7418659e-04 </wgt>
<wgt id='morphing_basis_vector_4'> +9.9342719e-05 </wgt>
<wgt id='morphing_basis_vector_5'> +1.6873622e-04 </wgt>
</rwgt>
</event>
<event>
 4      1 +7.8865000e-07 1.22005400e+03 7.81860800e-03 8.49902600e-02
        2 -1    0    0  501    0 +0.0000000000e+00 +0.0000000000e+00 +2.1683934590e+03 2.1683934590e+03 0.0000000000e+00 0.0000e+00 1.0000e+00
       -2 -1    0    0    0  501 -0.0000000000e+00 -0.0000000000e+00 -1.7161695952e+02 1.7161695952e+02 0.0000000000e+00 0.0000e+00 -1.0000e+00
      -13  1    1    2    0    0 +3.5316987134e+02 -1.0322881356e+02 +6.5173144571e+01 3.7367457064e+02 0.0000000000e+00 0.0000e+00 -1.0000e+00
       13  1    1    2    0    0 -3.5316987134e+02 +1.0322881356e+02 +1.9316033549e+03 1.9663358479e+03 0.0000000000e+00 0.0000e+00 1.0000e+00
<mgrwt>
<rscale>  0 0.12200542E+04</rscale>
<asrwt>0</asrwt>
<pdfrwt beam="1">  1        2 0.33359897E+00 0.12200542E+04</pdfrwt>
<pdfrwt beam="2">  1       -2 0.26402611E-01 0.12200542E+04</pdfrwt>
<totfact> 0.81840143E+01</totfact>
</mgrwt>
<rwgt>
<wgt id='morphing_basis_vector_1'> +2.6194188e-04 </wgt>
<wgt id='morphing_basis_vector_2'> +1.6828360e-04 </wgt>
<wgt id='morphing_basis_vector_3'> +2.6328474e-04 </wgt>
<wgt id='morphing_basis_vector_4'> +1.7046709e-04 </wgt>
<wgt id='morphing_basis_vector_5'> +2.7104754e-04 </wgt>
</rwgt>
</event>
<event>
 4      1 +7.8865000e-07 1.21656100e+03 7.81860800e-03 8.50164100e-02
        2 -1    0    0  501    0 +0.0000000000e+00 +0.0000000000e+00 +1.0753032237e+03 1.0753032237e+03 0.0000000000e+00 0.0000e+00 -1.0000e+00
       -2 -1    0    0    0  501 -0.0000000000e+00 -0.0000000000e+00 -3.4409362206e+02 3.4409362206e+02 0.0000000000e+00 0.0000e+00 1.0000e+00
      -13  1    1    2    0    0 +2.1625517686e+02 +4.2614207145e+02 -7.3497273761e+01 4.8349272572e+02 0.0000000000e+00 0.0000e+00 1.0000e+00
       13  1    1    2    0    0 -2.1625517686e+02 -4.2614207145e+02 +8.0470687540e+02 9.3590412003e+02 0.0000000000e+00 0.0000e+00 -1.0000e+00
<mgrwt>
<rscale>  0 0.12165607E+04</rscale>
<asrwt>0</asrwt>
<pdfrwt beam="1">  1        2 0.16543126E+00 0.12165607E+04</pdfrwt>
<pdfrwt beam="2">  1       -2 0.52937481E-01 0.12165607E+04</pdfrwt>
<totfact> 0.93695205E+01</totfact>
</mgrwt>
<rwgt>
<wgt id='morphing_basis_vector_1'> +2.5955136e-04 </wgt>
<wgt id='morphing_basis_vector_2'> +1.6773470e-04 </wgt>
<wgt id='morphing_basis_vector_3'> +2.6080535e-04 </wgt>
<wgt id='morphing_basis_vector_4'> +1.6765992e-04 </wgt>
<wgt id='morphing_basis_vector_5'> +2.6773155e-04 </wgt>
</rwgt>
</event>
<event>
 4      1 +7.8865000e-07 1.20136900e+03 7.81860800e-03 8.51312300e-02
        2 -1    0    0  501    0 +0.0000000000e+00 +0.0000000000e+00 +1.0237045541e+03 1.0237045541e+03 0.0000000000e+00 0.0000e+00 -1.0000e+00
       -2 -1    0    0    0  501 -0.0000000000e+00 -0.0000000000e+00 -3.5246661912e+02 3.5246661912e+02 0.0000000000e+00 0.0000e+00 1.0000e+00
      -13  1    1    2    0    0 -4.9181134439e+02 +1.1974133460e+01 -5.9205622501e+01 4.9550689609e+02 0.0000000000e+00 0.0000e+00 1.0000e+00
       13  1    1    2    0    0 +4.9181134439e+02 -1.1974133460e+01 +7.3044355752e+02 8.8066427716e+02 0.0000000000e+00 0.0000e+00 -1.0000e+00
<mgrwt>
<rscale>  0 0.12013687E+04</rscale>
<asrwt>0</asrwt>
<pdfrwt beam="1">  1        2 0.15749301E+00 0.12013687E+04</pdfrwt>
<pdfrwt beam="2">  1       -2 0.54225634E-01 0.12013687E+04</pdfrwt>
<totfact> 0.96140566E+01</totfact>
</mgrwt>
<rwgt>
<wgt id='morphing_basis_vector_1'> +2.4766478e-04 </wgt>
<wgt id='morphing_basis_vector_2'> +1.6024140e-04 </wgt>
<wgt id='morphing_basis_vector_3'> +2.4829495e-04 </wgt>
<wgt id='morphing_basis_vector_4'> +1.5871127e-04 </wgt>
<wgt id='morphing_basis_vector_5'> +2.5385600e-04 </wgt>
</rwgt>
</event>
<event>
 4      1 +7.8865000e-07 1.15460600e+03 7.81860800e-03 8.54961600e-02
        2 -1    0    0  501    0 +0.0000000000e+00 +0.0000000000e+00 +7.2112626889e+02 7.2112626889e+02 0.0000000000e+00 0.0000e+00 1.0000e+00
       -2 -1    0    0    0  501 -0.0000000000e+00 -0.0000000000e+00 -4.6216459531e+02 4.6216459531e+02 0.0000000000e+00 0.0000e+00 -1.0000e+00
      -13  1    1    2    0    0 +5.0501702674e+02 +2.0368477079e+02 -6.6982870548e+01 5.4864960412e+02 0.0000000000e+00 0.0000e+00 -1.0000e+00
       13  1    1    2    0    0 -5.0501702674e+02 -2.0368477079e+02 +3.2594454414e+02 6.3464126008e+02 0.0000000000e+00 0.0000e+00 1.0000e+00
<mgrwt>
<rscale>  0 0.11546065E+04</rscale>
<asrwt>0</asrwt>
<pdfrwt beam="1">  1        2 0.11094250E+00 0.11546065E+04</pdfrwt>
<pdfrwt beam="2">  1       -2 0.71102245E-01 0.11546065E+04</pdfrwt>
<totfact> 0.87789238E+01</totfact>
</mgrwt>
<rwgt>
<wgt id='morphing_basis_vector_1'> +2.1464882e-04 </wgt>
<wgt id='morphing_basis_vector_2'> +1.4170157e-04 </wgt>
<wgt id='morphing_basis_vector_3'> +2.1365476e-04 </wgt>
<wgt id='morphing_basis_vector_4'> +1.3173370e-04 </wgt>
<wgt id='morphing_basis_vector_5'> +2.1434907e-04 </wgt>
</rwgt>
</event>
<event>
 4      1 +7.8865000e-07 1.08723300e+03 7.81860800e-03 8.60550800e-02
        2 -1    0    0  501    0 +0.0000000000e+00 +0.0000000000e+00 +2.7091458692e+02 2.7091458692e+02 0.0000000000e+00 0.0000e+00 -1.0000e+00
       -2 -1    0    0    0  501 -0.0000000000e+00 -0.0000000000e+00 -1.0908193139e+03 1.0908193139e+03 0.0000000000e+00 0.0000e+00 1.0000e+00
      -13  1    1    2    0    0 -9.2876995028e+01 -2.1638138978e+02 -1.0236299245e+03 1.0503643484e+03 0.0000000000e+00 0.0000e+00 1.0000e+00
       13  1    1    2    0    0 +9.2876995028e+01 +2.1638138978e+02 +2.0372519755e+02 3.1136955240e+02 0.0000000000e+00 0.0000e+00 -1.0000e+00
<mgrwt>
<rscale>  0 0.10872329E+04</rscale>
<asrwt>0</asrwt>
<pdfrwt beam="1">  1        2 0.41679167E-01 0.10872329E+04</pdfrwt>
<pdfrwt beam="2">  1       -2 0.16781836E+00 0.10872329E+04</pdfrwt>
<totfact> 0.30905101E+01</totfact>
</mgrwt>
<rwgt>
<wgt id='morphing_basis_vector_1'> +1.6964835e-04 </wgt>
<wgt id='morphing_basis_vector_2'> +1.0733352e-04 </wgt>
<wgt id='morphing_basis_vector_3'> +1.6655138e-04 </wgt>
<wgt id='morphing_basis_vector_4'> +1.0469502e-04 </wgt>
<wgt id='morphing_basis_vector_5'> +1.6600295e-04 </wgt>
</rwgt>
</event>
<event>
 4      1 +7.8865000e-07 1.14632300e+03 7.81860800e-03 8.55627100e-02
        2 -1    0    0  501    0 +0.0000000000e+00 +0.0000000000e+00 +3.1089088495e+03 3.1089088495e+03 0.0000000000e+00 0.0000e+00 1.0000e+00
       -2 -1    0    0    0  501 -0.0000000000e+00 -0.0000000000e+00 -1.0566858942e+02 1.0566858942e+02 0.0000000000e+00 0.0000e+00 -1.0000e+00
      -13  1    1    2    0    0 +3.4708199770e+02 +3.7095860361e+02 +7.5736835013e+02 9.1196656545e+02 0.0000000000e+00 0.0000e+00 -1.0000e+00
       13  1    1    2    0    0 -3.4708199770e+02 -3.7095860361e+02 +2.2458719099e+03 2.3026108735e+03 0.0000000000e+00 0.0000e+00 1.0000e+00
<mgrwt>
<rscale>  0 0.11463228E+04</rscale>
<asrwt>0</asrwt>
<pdfrwt beam="1">  1        2 0.47829360E+00 0.11463228E+04</pdfrwt>
<pdfrwt beam="2">  1       -2 0.16256708E-01 0.11463228E+04</pdfrwt>
<totfact> 0.50116850E+01</totfact>
</mgrwt>
<rwgt>
<wgt id='morphing_basis_vector_1'> +2.0798204e-04 </wgt>
<wgt id='morphing_basis_vector_2'> +1.3501371e-04 </wgt>
<wgt id='morphing_basis_vector_3'> +2.0661833e-04 </wgt>
<wgt id='morphing_basis_vector_4'> +1.2932733e-04 </wgt>
<wgt id='morphing_basis_vector_5'> +2.0798651e-04 </wgt>
</rwgt>
</event>
<event>
 4      1 +7.8865000e-07 1.10338200e+03 7.81860800e-03 8.59173600e-02
        2 -1    0    0  501    0 +0.0000000000e+00 +0.0000000000e+00 +3.5984473226e+02 3.5984473226e+02 0.0000000000e+00 0.0000e+00 1.0000e+00
       -2 -1    0    0    0  501 -0.0000000000e+00 -0.0000000000e+00 -8.4581757283e+02 8.4581757283e+02 0.0000000000e+00 0.0000e+00 -1.0000e+00
      -13  1    1    2    0    0 +1.3755380300e+02 -3.9414873869e+02 -6.3709835146e+02 7.6168798492e+02 0.0000000000e+00 0.0000e+00 -1.0000e+00
       13  1    1    2    0    0 -1.3755380300e+02 +3.9414873869e+02 +1.5112551089e+02 4.4397432017e+02 0.0000000000e+00 0.0000e+00 1.0000e+00
<mgrwt>
<rscale>  0 0.11033821E+04</rscale>
<asrwt>0</asrwt>
<pdfrwt beam="1">  1        2 0.55360729E-01 0.11033821E+04</pdfrwt>
<pdfrwt beam="2">  1       -2 0.13012578E+00 0.11033821E+04</pdfrwt>
<totfact> 0.46223692E+01</totfact>
</mgrwt>
<rwgt>
<wgt id='morphing_basis_vector_1'> +1.7956529e-04 </wgt>
<wgt id='morphing_basis_vector_2'> +1.1452045e-04 </wgt>
<wgt id='morphing_basis_vector_3'> +1.7688216e-04 </wgt>
<wgt id='morphing_basis_vector_4'> +1.1100783e-04 </wgt>
<wgt id='morphing_basis_vector_5'> +1.7679102e-04 </wgt>
</rwgt>
</event>
<event>
 4      1 +7.8865000e-07 1.08585800e+03 7.81860800e-03 8.60669200e-02
        2 -1    0    0  501    0 +0.0000000000e+00 +0.0000000000e+00 +9.7971283663e+02 9.7971283663e+02 0.0000000000e+00 0.0000e+00 1.0000e+00
       -2 -1    0    0    0  501 -0.0000000000e+00 -0.0000000000e+00 -3.0087554843e+02 3.0087554843e+02 0.0000000000e+00 0.0000e+00 -1.0000e+00
      -13  1    1    2    0    0 -5.1710804574e+00 -5.3574093601e+02 +2.3575429484e+02 5.8534193265e+02 0.0000000000e+00 0.0000e+00 -1.0000e+00
       13  1    1    2    0    0 +5.1710804574e+00 +5.3574093601e+02 +4.4308299335e+02 6.9524645240e+02 0.0000000000e+00 0.0000e+00 1.0000e+00
<mgrwt>
<rscale>  0 0.10858575E+04</rscale>
<asrwt>0</asrwt>
<pdfrwt beam="1">  1        2 0.15072505E+00 0.10858575E+04</pdfrwt>
<pdfrwt beam="2">  1       -2 0.46288546E-01 0.10858575E+04</pdfrwt>
<totfact> 0.14083962E+02</totfact>
</mgrwt>
<rwgt>
<wgt id='morphing_basis_vector_1'> +1.7213913e-04 </wgt>
<wgt id='morphing_basis_vector_2'> +1.1673890e-04 </wgt>
<wgt id='morphing_basis_vector_3'> +1.6910163e-04 </wgt>
<wgt id='morphing_basis_vector_4'> +9.8771837e-05 </wgt>
<wgt id='morphing_basis_vector_5'> +1.6476290e-04 </wgt>
</rwgt>
</event>
<event>
 4      1 +7.8865000e-07 1.07416100e+03 7.81860800e-03 8.61683700e-02
        2 -1    0    0  501    0 +0.0000000000e+00 +0.0000000000e+00 +2.0911176793e+02 2.0911176793e+02 0.0000000000e+00 0.0000e+00 1.0000e+00
       -2 -1    0    0    0  501 -0.0000000000e+00 -0.0000000000e+00 -1.3794316351e+03 1.3794316351e+03 0.0000000000e+00 0.0000e+00 -1.0000e+00
      -13  1    1    2    0    0 +3.0139053537e+02 +3.3635859967e+02 -1.0150049749e+03 1.1109493514e+03 0.0000000000e+00 0.0000e+00 -1.0000e+00
       13  1    1    2    0    0 -3.0139053537e+02 -3.3635859967e+02 -1.5531489230e+02 4.7759405162e+02 0.0000000000e+00 0.0000e+00 1.0000e+00
<mgrwt>
<rscale>  0 0.10741609E+04</rscale>
<asrwt>0</asrwt>
<pdfrwt beam="1">  1        2 0.32171040E-01 0.10741609E+04</pdfrwt>
<pdfrwt beam="2">  1       -2 0.21222026E+00 0.10741609E+04</pdfrwt>
<totfact> 0.19411264E+01</totfact>
</mgrwt>
<rwgt>
<wgt id='morphing_basis_vector_1'> +1.6270109e-04 </wgt>
<wgt id='morphing_basis_vector_2'> +1.0408379e-04 </wgt>
<wgt id='morphing_basis_vector_3'> +1.5931355e-04 </wgt>
<wgt id='morphing_basis_vector_4'> +9.8535628e-05 </wgt>
<wgt id='morphing_basis_vector_5'> +1.5755134e-04 </wgt>
</rwgt>
</event>
<event>
 4      1 +7.8865000e-07 1.22106900e+03 7.81860800e-03 8.49826800e-02
        2 -1    0    0  501    0 +0.0000000000e+00 +0.0000000000e+00 +1.0467498151e+03 1.0467498151e+03 0.0000000000e+00 0.0000e+00 -1.0000e+00
       -2 -1    0    0    0  501 -0.0000000000e+00 -0.0000000000e+00 -3.5610456376e+02 3.5610456376e+02 0.0000000000e+00 0.0000e+00 1.0000e+00
      -13  1    1    2    0    0 -2.8884807268e+02 +1.7717285767e+02 -2.3815261273e+02 4.1417399428e+02 0.0000000000e+00 0.0000e+00 1.0000e+00
       13  1    1    2    0    0 +2.8884807268e+02 -1.7717285767e+02 +9.2879786411e+02 9.8868038463e+02 0.0000000000e+00 0.0000e+00 -1.0000e+00
<mgrwt>
<rscale>  0 0.12210690E+04</rscale>
<asrwt>0</asrwt>
<pdfrwt beam="1">  1        2 0.16103843E+00 0.12210690E+04</pdfrwt>
<pdfrwt beam="2">  1       -2 0.54785318E-01 0.12210690E+04</pdfrwt>
<totfact> 0.91028935E+01</totfact>
</mgrwt>
<rwgt>
<wgt id='morphing_basis_vector_1'> +2.6272403e-04 </wgt>
<wgt id='morphing_basis_vector_2'> +1.6869634e-04 </wgt>
<wgt id='morphing_basis_vector_3'> +2.6410499e-04 </wgt>
<wgt id='morphing_basis_vector_4'> +1.7114210e-04 </wgt>
<wgt id='morphing_basis_vector_5'> +2.7200638e-04 </wgt>
</rwgt>
</event>
<event>
 4      1 +7.8865000e-07 1.19852400e+03 7.81860800e-03 8.51529200e-02
        2 -1    0    0  501    0 +0.0000000000e+00 +0.0000000000e+00 +7.7422619472e+02 7.7422619472e+02 0.0000000000e+00 0.0000e+00 1.0000e+00
       -2 -1    0    0    0  501 -0.0000000000e+00 -0.0000000000e+00 -4.6383715964e+02 4.6383715964e+02 0.0000000000e+00 0.0000e+00 -1.0000e+00
      -13  1    1    2    0    0 -3.4138962204e+01 +4.5950629429e+02 -2.4059491541e+02 5.1980517173e+02 0.0000000000e+00 0.0000e+00 -1.0000e+00
       13  1    1    2    0    0 +3.4138962204e+01 -4.5950629429e+02 +5.5098395048e+02 7.1825818263e+02 0.0000000000e+00 0.0000e+00 1.0000e+00
<mgrwt>
<rscale>  0 0.11985239E+04</rscale>
<asrwt>0</asrwt>
<pdfrwt beam="1">  1        2 0.11911172E+00 0.11985239E+04</pdfrwt>
<pdfrwt beam="2">  1       -2 0.71359563E-01 0.11985239E+04</pdfrwt>
<totfact> 0.79428564E+01</totfact>
</mgrwt>
<rwgt>
<wgt id='morphing_basis_vector_1'> +2.4521228e-04 </wgt>
<wgt id='morphing_basis_vector_2'> +1.5804472e-04 </wgt>
<wgt id='morphing_basis_vector_3'> +2.4569367e-04 </wgt>
<wgt id='morphing_basis_vector_4'> +1.5754510e-04 </wgt>
<wgt id='morphing_basis_vector_5'> +2.5134966e-04 </wgt>
</rwgt>
</event>
<event>
 4      1 +7.8865000e-07 1.08615700e+03 7.81860800e-03 8.60643400e-02
        2 -1    0    0  501    0 +0.0000000000e+00 +0.0000000000e+00 +4.5295079914e+02 4.5295079914e+02 0.0000000000e+00 0.0000e+00 -1.0000e+00
       -2 -1    0    0    0  501 -0.0000000000e+00 -0.0000000000e+00 -6.5113930944e+02 6.5113930944e+02 0.0000000000e+00 0.0000e+00 1.0000e+00
      -13  1    1    2    0    0 -4.8277931290e+02 -1.0971089457e+02 +1.2779891967e+02 5.1131683839e+02 0.0000000000e+00 0.0000e+00 1.0000e+00
       13  1    1    2    0    0 +4.8277931290e+02 +1.0971089457e+02 -3.2598742997e+02 5.9277327019e+02 0.0000000000e+00 0.0000e+00 -1.0000e+00
<mgrwt>
<rscale>  0 0.10861567E+04</rscale>
<asrwt>0</asrwt>
<pdfrwt beam="1">  1        2 0.69684739E-01 0.10861567E+04</pdfrwt>
<pdfrwt beam="2">  1       -2 0.10017528E+00 0.10861567E+04</pdfrwt>
<totfact> 0.69449136E+01</totfact>
</mgrwt>
<rwgt>
<wgt id='morphing_basis_vector_1'> +1.9280705e-04 </wgt>
<wgt id='morphing_basis_vector_2'> +1.7867317e-04 </wgt>
<wgt id='morphing_basis_vector_3'> +1.9035668e-04 </wgt>
<wgt id='morphing_basis_vector_4'> +6.5523663e-05 </wgt>
<wgt id='morphing_basis_vector_5'> +1.6283034e-04 </wgt>
</rwgt>
</event>
<event>
 4      1 +7.8865000e-07 1.10328900e+03 7.81860800e-03 8.59181500e-02
        2 -1    0    0  501    0 +0.0000000000e+00 +0.0000000000e+00 +1.1991174862e+03 1.1991174862e+03 0.0000000000e+00 0.0000e+00 -1.0000e+00
       -2 -1    0    0    0  501 -0.0000000000e+00 -0.0000000000e+00 -2.5377976060e+02 2.5377976060e+02 0.0000000000e+00 0.0000e+00 1.0000e+00
      -13  1    1    2    0    0 +1.7534000567e+02 -1.7495837089e+02 -1.7642937754e+02 3.0410832674e+02 0.0000000000e+00 0.0000e+00 1.0000e+00
       13  1    1    2    0    0 -1.7534000567e+02 +1.7495837089e+02 +1.1217671031e+03 1.1487889200e+03 0.0000000000e+00 0.0000e+00 -1.0000e+00
<mgrwt>
<rscale>  0 0.11032892E+04</rscale>
<asrwt>0</asrwt>
<pdfrwt beam="1">  1        2 0.18447961E+00 0.11032892E+04</pdfrwt>
<pdfrwt beam="2">  1       -2 0.39043041E-01 0.11032892E+04</pdfrwt>
<totfact> 0.14309354E+02</totfact>
</mgrwt>
<rwgt>
<wgt id='morphing_basis_vector_1'> +1.7921980e-04 </wgt>
<wgt id='morphing_basis_vector_2'> +1.1361236e-04 </wgt>
<wgt id='morphing_basis_vector_3'> +1.7652107e-04 </wgt>
<wgt id='morphing_basis_vector_4'> +1.1144260e-04 </wgt>
<wgt id='morphing_basis_vector_5'> +1.7675795e-04 </wgt>
</rwgt>
</event>
<event>
 4      1 +7.8865000e-07 1.22692700e+03 7.81860800e-03 8.49390800e-02
        2 -1    0    0  501    0 +0.0000000000e+00 +0.0000000000e+00 +1.6698766400e+03 1.6698766400e+03 0.0000000000e+00 0.0000e+00 1.0000e+00
       -2 -1    0    0    0  501 -0.0000000000e+00 -0.0000000000e+00 -2.2536852692e+02 2.2536852692e+02 0.0000000000e+00 0.0000e+00 -1.0000e+00
      -13  1    1    2    0    0 -6.0262964814e+02 -5.1041385249e+01 +8.8106575110e+02 1.0686648556e+03 0.0000000000e+00 0.0000e+00 -1.0000e+00
       13  1    1    2    0    0 +6.0262964814e+02 +5.1041385249e+01 +5.6344236203e+02 8.2658031137e+02 0.0000000000e+00 0.0000e+00 1.0000e+00
<mgrwt>
<rscale>  0 0.12269273E+04</rscale>
<asrwt>0</asrwt>
<pdfrwt beam="1">  1        2 0.25690409E+00 0.12269273E+04</pdfrwt>
<pdfrwt beam="2">  1       -2 0.34672082E-01 0.12269273E+04</pdfrwt>
<totfact> 0.95704476E+01</totfact>
</mgrwt>
<rwgt>
<wgt id='morphing_basis_vector_1'> +2.8479827e-04 </wgt>
<wgt id='morphing_basis_vector_2'> +2.2368799e-04 </wgt>
<wgt id='morphing_basis_vector_3'> +2.8907061e-04 </wgt>
<wgt id='morphing_basis_vector_4'> +1.4470339e-04 </wgt>
<wgt id='morphing_basis_vector_5'> +2.7550703e-04 </wgt>
</rwgt>
</event>
<event>
 4      1 +7.8865000e-07 1.16780200e+03 7.81860800e-03 8.53913600e-02
        2 -1    0    0  501    0 +0.0000000000e+00 +0.0000000000e+00 +1.7281380653e+03 1.7281380653e+03 0.0000000000e+00 0.0000e+00 1.0000e+00
       -2 -1    0    0    0  501 -0.0000000000e+00 -0.0000000000e+00 -1.9728760324e+02 1.9728760324e+02 0.0000000000e+00 0.0000e+00 -1.0000e+00
      -13  1    1    2    0    0 +4.2247129310e+02 -4.0303811571e+02 +7.7251696470e+02 9.6835126734e+02 0.0000000000e+00 0.0000e+00 1.0000e+00
       13  1    1    2    0    0 -4.2247129310e+02 +4.0303811571e+02 +7.5833349735e+02 9.5707440119e+02 0.0000000000e+00 0.0000e+00 -1.0000e+00
<mgrwt>
<rscale>  0 0.11678017E+04</rscale>
<asrwt>0</asrwt>
<pdfrwt beam="1">  1        2 0.26586738E+00 0.11678017E+04</pdfrwt>
<pdfrwt beam="2">  1       -2 0.30351940E-01 0.11678017E+04</pdfrwt>
<totfact> 0.11332722E+02</totfact>
</mgrwt>
<rwgt>
<wgt id='morphing_basis_vector_1'> +2.3008490e-04 </wgt>
<wgt id='morphing_basis_vector_2'> +1.6626078e-04 </wgt>
<wgt id='morphing_basis_vector_3'> +2.3020977e-04 </wgt>
<wgt id='morphing_basis_vector_4'> +1.2799488e-04 </wgt>
<wgt id='morphing_basis_vector_5'> +2.2426780e-04 </wgt>
</rwgt>
</event>
<event>
 4      1 +7.8865000e-07 1.23247700e+03 7.81860800e-03 8.48980100e-02
        2 -1    0    0  501    0 +0.0000000000e+00 +0.0000000000e+00 +8.8073682645e+02 8.8073682645e+02 0.0000000000e+00 0.0000e+00 -1.0000e+00
       -2 -1    0    0    0  501 -0.0000000000e+00 -0.0000000000e+00 -4.3117265942e+02 4.3117265942e+02 0.0000000000e+00 0.0000e+00 1.0000e+00
      -13  1    1    2    0    0 +8.4649285724e+01 -5.3486022371e+02 -8.8297705237e+01 5.4866879374e+02 0.0000000000e+00 0.0000e+00 1.0000e+00
       13  1    1    2    0    0 -8.4649285724e+01 +5.3486022371e+02 +5.3786187227e+02 7.6324069213e+02 0.0000000000e+00 0.0000e+00 -1.0000e+00
<mgrwt>
<rscale>  0 0.12324766E+04</rscale>
<asrwt>0</asrwt>
<pdfrwt beam="1">  1        2 0.13549797E+00 0.12324766E+04</pdfrwt>
<pdfrwt beam="2">  1       -2 0.66334255E-01 0.12324766E+04</pdfrwt>
<totfact> 0.78253439E+01</totfact>
</mgrwt>
<rwgt>
<wgt id='morphing_basis_vector_1'> +2.7340769e-04 </wgt>
<wgt id='morphing_basis_vector_2'> +1.7869096e-04 </wgt>
<wgt id='morphing_basis_vector_3'> +2.7549905e-04 </wgt>
<wgt id='morphing_basis_vector_4'> +1.7579617e-04 </wgt>
<wgt id='morphing_basis_vector_5'> +2.8274738e-04 </wgt>
</rwgt>
</event>
<event>
 4      1 +7.8865000e-07 1.19452300e+03 7.81860800e-03 8.51835500e-02
        2 -1    0    0  501    0 +0.0000000000e+00 +0.0000000000e+00 +7.6820711596e+02 7.6820711596e+02 0.0000000000e+00 0.0000e+00 -1.0000e+00
       -2 -1    0    0    0  501 -0.0000000000e+00 -0.0000000000e+00 -4.6435571800e+02 4.6435571800e+02 0.0000000000e+00 0.0000e+00 1.0000e+00
      -13  1    1    2    0    0 +2.3383954767e+02 +4.6758342599e+02 -1.4607247775e+02 5.4281890449e+02 0.0000000000e+00 0.0000e+00 1.0000e+00
       13  1    1    2    0    0 -2.3383954767e+02 -4.6758342599e+02 +4.4992387570e+02 6.8974392947e+02 0.0000000000e+00 0.0000e+00 -1.0000e+00
<mgrwt>
<rscale>  0 0.11945231E+04</rscale>
<asrwt>0</asrwt>
<pdfrwt beam="1">  1        2 0.11818571E+00 0.11945231E+04</pdfrwt>
<pdfrwt beam="2">  1       -2 0.71439341E-01 0.11945231E+04</pdfrwt>
<totfact> 0.80048627E+01</totfact>
</mgrwt>
<rwgt>
<wgt id='morphing_basis_vector_1'> +2.4282154e-04 </wgt>
<wgt id='morphing_basis_vector_2'> +1.5807544e-04 </wgt>
<wgt id='morphing_basis_vector_3'> +2.4322918e-04 </wgt>
<wgt id='morphing_basis_vector_4'> +1.5415512e-04 </wgt>
<wgt id='morphing_basis_vector_5'> +2.4773662e-04 </wgt>
</rwgt>
</event>
<event>
 4      1 +7.8865000e-07 1.18028900e+03 7.81860800e-03 8.52935300e-02
        2 -1    0    0  501    0 +0.0000000000e+00 +0.0000000000e+00 +3.6174969629e+03 3.6174969629e+03 0.0000000000e+00 0.0000e+00 -1.0000e+00
       -2 -1    0    0    0  501 -0.0000000000e+00 -0.0000000000e+00 -9.6273827598e+01 9.6273827598e+01 0.0000000000e+00 0.0000e+00 1.0000e+00
      -13  1    1    2    0    0 -4.3754568949e+01 -5.5752354230e+02 +1.1675720339e+03 1.2945931472e+03 0.0000000000e+00 0.0000e+00 1.0000e+00
       13  1    1    2    0    0 +4.3754568949e+01 +5.5752354230e+02 +2.3536511014e+03 2.4191776433e+03 0.0000000000e+00 0.0000e+00 -1.0000e+00
<mgrwt>
<rscale>  0 0.11802886E+04</rscale>
<asrwt>0</asrwt>
<pdfrwt beam="1">  1        2 0.55653789E+00 0.11802886E+04</pdfrwt>
<pdfrwt beam="2">  1       -2 0.14811361E-01 0.11802886E+04</pdfrwt>
<totfact> 0.25649682E+01</totfact>
</mgrwt>
<rwgt>
<wgt id='morphing_basis_vector_1'> +2.3334958e-04 </wgt>
<wgt id='morphing_basis_vector_2'> +1.5472878e-04 </wgt>
<wgt id='morphing_basis_vector_3'> +2.3334034e-04 </wgt>
<wgt id='morphing_basis_vector_4'> +1.4436096e-04 </wgt>
<wgt id='morphing_basis_vector_5'> +2.3531980e-04 </wgt>
</rwgt>
</event>
<event>
 4      1 +7.8865000e-07 1.08839100e+03 7.81860800e-03 8.60451200e-02
        2 -1    0    0  501    0 +0.0000000000e+00 +0.0000000000e+00 +1.6969005094e+03 1.6969005094e+03 0.0000000000e+00 0.0000e+00 -1.0000e+00
       -2 -1    0    0    0  501 -0.0000000000e+00 -0.0000000000e+00 -1.7452329151e+02 1.7452329151e+02 0.0000000000e+00 0.0000e+00 1.0000e+00
      -13  1    1    2    0    0 +4.4667194274e+02 -2.6424436164e+02 +4.7966327031e+02 7.0669495539e+02 0.0000000000e+00 0.0000e+00 1.0000e+00
       13  1    1    2    0    0 -4.4667194274e+02 +2.6424436164e+02 +1.0427139475e+03 1.1647288455e+03 0.0000000000e+00 0.0000e+00 -1.0000e+00
<mgrwt>
<rscale>  0 0.10883909E+04</rscale>
<asrwt>0</asrwt>
<pdfrwt beam="1">  1        2 0.26106161E+00 0.10883909E+04</pdfrwt>
<pdfrwt beam="2">  1       -2 0.26849738E-01 0.10883909E+04</pdfrwt>
<totfact> 0.14716272E+02</totfact>
</mgrwt>
<rwgt>
<wgt id='morphing_basis_vector_1'> +1.7220552e-04 </wgt>
<wgt id='morphing_basis_vector_2'> +1.1344883e-04 </wgt>
<wgt id='morphing_basis_vector_3'> +1.6919357e-04 </wgt>
<wgt id='morphing_basis_vector_4'> +1.0210594e-04 </wgt>
<wgt id='morphing_basis_vector_5'> +1.6656634e-04 </wgt>
</rwgt>
</event>
<event>
 4      1 +7.8865000e-07 1.22138500e+03 7.81860800e-03 8.49803300e-02
        2 -1    0    0  501    0 +0.0000000000e+00 +0.0000000000e+00 +1.9271883369e+03 1.9271883369e+03 0.0000000000e+00 0.0000e+00 -1.0000e+00
       -2 -1    0    0    0  501 -0.0000000000e+00 -0.0000000000e+00 -1.9351775693e+02 1.9351775693e+02 0.0000000000e+00 0.0000e+00 1.0000e+00
      -13  1    1    2    0    0 +1.2909926304e+02 -4.9037812637e+02 +2.7595844040e+02 5.7731307569e+02 0.0000000000e+00 0.0000e+00 1.0000e+00
       13  1    1    2    0    0 -1.2909926304e+02 +4.9037812637e+02 +1.4577121396e+03 1.5433930181e+03 0.0000000000e+00 0.0000e+00 -1.0000e+00
<mgrwt>
<rscale>  0 0.12213847E+04</rscale>
<asrwt>0</asrwt>
<pdfrwt beam="1">  1        2 0.29649050E+00 0.12213847E+04</pdfrwt>
<pdfrwt beam="2">  1       -2 0.29771964E-01 0.12213847E+04</pdfrwt>
<totfact> 0.90553179E+01</totfact>
</mgrwt>
<rwgt>
<wgt id='morphing_basis_vector_1'> +2.6373628e-04 </wgt>
<wgt id='morphing_basis_vector_2'> +1.7113193e-04 </wgt>
<wgt id='morphing_basis_vector_3'> +2.6524298e-04 </wgt>
<wgt id='morphing_basis_vector_4'> +1.7002312e-04 </wgt>
<wgt id='morphing_basis_vector_5'> +2.7221421e-04 </wgt>
</rwgt>
</event>
<event>
 4      1 +7.8865000e-07 1.07329700e+03 7.81860800e-03 8.61759200e-02
        2 -1    0    0  501    0 +0.0000000000e+00 +0.0000000000e+00 +4.2831806711e+02 4.2831806711e+02 0.0000000000e+00 0.0000e+00 -1.0000e+00
       -2 -1    0    0    0  501 -0.0000000000e+00 -0.0000000000e+00 -6.7237741828e+02 6.7237741828e+02 0.0000000000e+00 0.0000e+00 1.0000e+00
      -13  1    1    2    0    0 +2.2099484416e+02 +4.0433842164e+01 -6.2182880471e+02 6.6116917586e+02 0.0000000000e+00 0.0000e+00 1.0000e+00
       13  1    1    2    0    0 -2.2099484416e+02 -4.0433842164e+01 +3.7776945354e+02 4.3952630953e+02 0.0000000000e+00 0.0000e+00 -1.0000e+00
<mgrwt>
<rscale>  0 0.10732966E+04</rscale>
<asrwt>0</asrwt>
<pdfrwt beam="1">  1        2 0.65895088E-01 0.10732966E+04</pdfrwt>
<pdfrwt beam="2">  1       -2 0.10344268E+00 0.10732966E+04</pdfrwt>
<totfact> 0.68488780E+01</totfact>
</mgrwt>
<rwgt>
<wgt id='morphing_basis_vector_1'> +1.6166334e-04 </wgt>
<wgt id='morphing_basis_vector_2'> +1.0210183e-04 </wgt>
<wgt id='morphing_basis_vector_3'> +1.5824814e-04 </wgt>
<wgt id='morphing_basis_vector_4'> +9.9085878e-05 </wgt>
<wgt id='morphing_basis_vector_5'> +1.5706387e-04 </wgt>
</rwgt>
</event>
<event>
 4      1 +7.8865000e-07 1.28301300e+03 7.81860800e-03 8.45341300e-02
        2 -1    0    0  501    0 +0.0000000000e+00 +0.0000000000e+00 +8.6459925651e+02 8.6459925651e+02 0.0000000000e+00 0.0000e+00 1.0000e+00
       -2 -1    0    0    0  501 -0.0000000000e+00 -0.0000000000e+00 -4.7597850164e+02 4.7597850164e+02 0.0000000000e+00 0.0000e+00 -1.0000e+00
      -13  1    1    2    0    0 +1.4721300758e+02 +1.5804734689e+02 -4.3684452649e+02 4.8732306921e+02 0.0000000000e+00 0.0000e+00 -1.0000e+00
       13  1    1    2    0    0 -1.4721300758e+02 -1.5804734689e+02 +8.2546528137e+02 8.5325468894e+02 0.0000000000e+00 0.0000e+00 1.0000e+00
<mgrwt>
<rscale>  0 0.12830131E+04</rscale>
<asrwt>0</asrwt>
<pdfrwt beam="1">  1        2 0.13301527E+00 0.12830131E+04</pdfrwt>
<pdfrwt beam="2">  1       -2 0.73227462E-01 0.12830131E+04</pdfrwt>
<totfact> 0.64654356E+01</totfact>
</mgrwt>
<rwgt>
<wgt id='morphing_basis_vector_1'> +3.1697983e-04 </wgt>
<wgt id='morphing_basis_vector_2'> +2.0437471e-04 </wgt>
<wgt id='morphing_basis_vector_3'> +3.2141893e-04 </wgt>
<wgt id='morphing_basis_vector_4'> +2.1085848e-04 </wgt>
<wgt id='morphing_basis_vector_5'> +3.3506424e-04 </wgt>
</rwgt>
</event>
<event>
 4      1 +7.8865000e-07 1.09680500e+03 7.81860800e-03 8.59731600e-02
        2 -1    0    0  501    0 +0.0000000000e+00 +0.0000000000e+00 +7.5424557206e+02 7.5424557206e+02 0.0000000000e+00 0.0000e+00 -1.0000e+00
       -2 -1    0    0    0  501 -0.0000000000e+00 -0.0000000000e+00 -3.9873630071e+02 3.9873630071e+02 0.0000000000e+00 0.0000e+00 1.0000e+00
      -13  1    1    2    0    0 -2.0285111311e+02 +9.2404155260e+01 -3.4896587800e+02 4.1408246281e+02 0.0000000000e+00 0.0000e+00 1.0000e+00
       13  1    1    2    0    0 +2.0285111311e+02 -9.2404155260e+01 +7.0447514935e+02 7.3889940997e+02 0.0000000000e+00 0.0000e+00 -1.0000e+00
<mgrwt>
<rscale>  0 0.10968046E+04</rscale>
<asrwt>0</asrwt>
<pdfrwt beam="1">  1        2 0.11603778E+00 0.10968046E+04</pdfrwt>
<pdfrwt beam="2">  1       -2 0.61344046E-01 0.10968046E+04</pdfrwt>
<totfact> 0.11371051E+02</totfact>
</mgrwt>
<rwgt>
<wgt id='morphing_basis_vector_1'> +1.7529911e-04 </wgt>
<wgt id='morphing_basis_vector_2'> +1.1102405e-04 </wgt>
<wgt id='morphing_basis_vector_3'> +1.7243514e-04 </wgt>
<wgt id='morphing_basis_vector_4'> +1.0869085e-04 </wgt>
<wgt id='morphing_basis_vector_5'> +1.7235540e-04 </wgt>
</rwgt>
</event>
<event>
 4      1 +7.8865000e-07 1.07662100e+03 7.81860800e-03 8.61469200e-02
        2 -1    0    0  501    0 +0.0000000000e+00 +0.0000000000e+00 +4.1632279123e+02 4.1632279123e+02 0.0000000000e+00 0.0000e+00 1.0000e+00
       -2 -1    0    0    0  501 -0.0000000000e+00 -0.0000000000e+00 -6.9604162993e+02 6.9604162993e+02 0.0000000000e+00 0.0000e+00 -1.0000e+00
      -13  1    1    2    0    0 -3.8036809770e+02 +1.1437230673e+02 -5.1526390191e+02 6.5058266416e+02 0.0000000000e+00 0.0000e+00 -1.0000e+00
       13  1    1    2    0    0 +3.8036809770e+02 -1.1437230673e+02 +2.3554506321e+02 4.6178175700e+02 0.0000000000e+00 0.0000e+00 1.0000e+00
<mgrwt>
<rscale>  0 0.10766206E+04</rscale>
<asrwt>0</asrwt>
<pdfrwt beam="1">  1        2 0.64049661E-01 0.10766206E+04</pdfrwt>
<pdfrwt beam="2">  1       -2 0.10708333E+00 0.10766206E+04</pdfrwt>
<totfact> 0.64923035E+01</totfact>
</mgrwt>
<rwgt>
<wgt id='morphing_basis_vector_1'> +1.6376945e-04 </wgt>
<wgt id='morphing_basis_vector_2'> +1.0402069e-04 </wgt>
<wgt id='morphing_basis_vector_3'> +1.6043207e-04 </wgt>
<wgt id='morphing_basis_vector_4'> +1.0003328e-04 </wgt>
<wgt id='morphing_basis_vector_5'> +1.5913968e-04 </wgt>
</rwgt>
</event>
<event>
 4      1 +7.8865000e-07 1.14816500e+03 7.81860800e-03 8.55478600e-02
        2 -1    0    0  501    0 +0.0000000000e+00 +0.0000000000e+00 +1.5889545905e+03 1.5889545905e+03 0.0000000000e+00 0.0000e+00 1.0000e+00
       -2 -1    0    0    0  501 -0.0000000000e+00 -0.0000000000e+00 -2.0741359723e+02 2.0741359723e+02 0.0000000000e+00 0.0000e+00 -1.0000e+00
      -13  1    1    2    0    0 -2.4576785566e+01 -2.9772271273e+02 -7.6225594744e+01 3.0830694666e+02 0.0000000000e+00 0.0000e+00 -1.0000e+00
       13  1    1    2    0    0 +2.4576785566e+01 +2.9772271273e+02 +1.4577665880e+03 1.4880612411e+03 0.0000000000e+00 0.0000e+00 1.0000e+00
<mgrwt>
<rscale>  0 0.11481651E+04</rscale>
<asrwt>0</asrwt>
<pdfrwt beam="1">  1        2 0.24445455E+00 0.11481651E+04</pdfrwt>
<pdfrwt beam="2">  1       -2 0.31909785E-01 0.11481651E+04</pdfrwt>
<totfact> 0.12398479E+02</totfact>
</mgrwt>
<rwgt>
<wgt id='morphing_basis_vector_1'> +2.0819164e-04 </wgt>
<wgt id='morphing_basis_vector_2'> +1.3269388e-04 </wgt>
<wgt id='morphing_basis_vector_3'> +2.0679711e-04 </wgt>
<wgt id='morphing_basis_vector_4'> +1.3197568e-04 </wgt>
<wgt id='morphing_basis_vector_5'> +2.0952932e-04 </wgt>
</rwgt>
</event>
<event>
 4      1 +7.8865000e-07 1.13566600e+03 7.81860800e-03 8.56492000e-02
        2 -1    0    0  501    0 +0.0000000000e+00 +0.0000000000e+00 +7.4045078685e+02 7.4045078685e+02 0.0000000000e+00 0.0000e+00 -1.0000e+00
       -2 -1    0    0    0  501 -0.0000000000e+00 -0.0000000000e+00 -4.3545679258e+02 4.3545679258e+02 0.0000000000e+00 0.0000e+00 1.0000e+00
      -13  1    1    2    0    0 -5.3905823984e+02 +1.7466696393e+02 +1.9042825787e+02 5.9779198357e+02 0.0000000000e+00 0.0000e+00 1.0000e+00
       13  1    1    2    0    0 +5.3905823984e+02 -1.7466696393e+02 +1.1456573639e+02 5.7811559586e+02 0.0000000000e+00 0.0000e+00 -1.0000e+00
<mgrwt>
<rscale>  0 0.11356660E+04</rscale>
<asrwt>0</asrwt>
<pdfrwt beam="1">  1        2 0.11391551E+00 0.11356660E+04</pdfrwt>
<pdfrwt beam="2">  1       -2 0.66993352E-01 0.11356660E+04</pdfrwt>
<totfact> 0.96580292E+01</totfact>
</mgrwt>
<rwgt>
<wgt id='morphing_basis_vector_1'> +2.0879082e-04 </wgt>
<wgt id='morphing_basis_vector_2'> +1.5426196e-04 </wgt>
<wgt id='morphing_basis_vector_3'> +2.0769247e-04 </wgt>
<wgt id='morphing_basis_vector_4'> +1.1096881e-04 </wgt>
<wgt id='morphing_basis_vector_5'> +1.9900081e-04 </wgt>
</rwgt>
</event>
<event>
 4      1 +7.8865000e-07 1.28420600e+03 7.81860800e-03 8.45257600e-02
        2 -1    0    0  501    0 +0.0000000000e+00 +0.0000000000e+00 +6.5708964561e+02 6.5708964561e+02 0.0000000000e+00 0.0000e+00 -1.0000e+00
       -2 -1    0    0    0  501 -0.0000000000e+00 -0.0000000000e+00 -6.2745841376e+02 6.2745841376e+02 0.0000000000e+00 0.0000e+00 1.0000e+00
      -13  1    1    2    0    0 +3.6316992597e+02 -1.5231763626e+02 -4.9247158259e+02 6.3057221403e+02 0.0000000000e+00 0.0000e+00 1.0000e+00
       13  1    1    2    0    0 -3.6316992597e+02 +1.5231763626e+02 +5.2210281444e+02 6.5397584534e+02 0.0000000000e+00 0.0000e+00 -1.0000e+00
<mgrwt>
<rscale>  0 0.12842063E+04</rscale>
<asrwt>0</asrwt>
<pdfrwt beam="1">  1        2 0.10109071E+00 0.12842063E+04</pdfrwt>
<pdfrwt beam="2">  1       -2 0.96532064E-01 0.12842063E+04</pdfrwt>
<totfact> 0.48535418E+01</totfact>
</mgrwt>
<rwgt>
<wgt id='morphing_basis_vector_1'> +3.1826833e-04 </wgt>
<wgt id='morphing_basis_vector_2'> +2.0561076e-04 </wgt>
<wgt id='morphing_basis_vector_3'> +3.2280526e-04 </wgt>
<wgt id='morphing_basis_vector_4'> +2.1139143e-04 </wgt>
<wgt id='morphing_basis_vector_5'> +3.3635505e-04 </wgt>
</rwgt>
</event>
<event>
 4      1 +7.8865000e-07 1.07516200e+03 7.81860800e-03 8.61596300e-02
        2 -1    0    0  501    0 +0.0000000000e+00 +0.0000000000e+00 +9.0380745849e+02 9.0380745849e+02 0.0000000000e+00 0.0000e+00 -1.0000e+00
       -2 -1    0    0    0  501 -0.0000000000e+00 -0.0000000000e+00 -3.1975124657e+02 3.1975124657e+02 0.0000000000e+00 0.0000e+00 1.0000e+00
      -13  1    1    2    0    0 -2.3910010594e+02 +4.6151111652e+02 +4.4819937795e+02 6.8632649208e+02 0.0000000000e+00 0.0000e+00 1.0000e+00
       13  1    1    2    0    0 +2.3910010594e+02 -4.6151111652e+02 +1.3585683397e+02 5.3723221298e+02 0.0000000000e+00 0.0000e+00 -1.0000e+00
<mgrwt>
<rscale>  0 0.10751624E+04</rscale>
<asrwt>0</asrwt>
<pdfrwt beam="1">  1        2 0.13904730E+00 0.10751624E+04</pdfrwt>
<pdfrwt beam="2">  1       -2 0.49192500E-01 0.10751624E+04</pdfrwt>
<totfact> 0.14008092E+02</totfact>
</mgrwt>
<rwgt>
<wgt id='morphing_basis_vector_1'> +1.7676192e-04 </wgt>
<wgt id='morphing_basis_vector_2'> +1.4518184e-04 </wgt>
<wgt id='morphing_basis_vector_3'> +1.7362338e-04 </wgt>
<wgt id='morphing_basis_vector_4'> +7.7088591e-05 </wgt>
<wgt id='morphing_basis_vector_5'> +1.5680090e-04 </wgt>
</rwgt>
</event>
<event>
 4      1 +7.8865000e-07 1.27412400e+03 7.81860800e-03 8.45968500e-02
        2 -1    0    0  501    0 +0.0000000000e+00 +0.0000000000e+00 +2.0895733935e+03 2.0895733935e+03 0.0000000000e+00 0.0000e+00 -1.0000e+00
       -2 -1    0    0    0  501 -0.0000000000e+00 -0.0000000000e+00 -1.9422525075e+02 1.9422525075e+02 0.0000000000e+00 0.0000e+00 1.0000e+00
      -13  1    1    2    0    0 -3.4893935664e+02 -4.5476813727e+02 +4.4940242358e+02 7.2837852220e+02 0.0000000000e+00 0.0000e+00 1.0000e+00
       13  1    1    2    0    0 +3.4893935664e+02 +4.5476813727e+02 +1.4459457192e+03 1.5554201221e+03 0.0000000000e+00 0.0000e+00 -1.0000e+00
<mgrwt>
<rscale>  0 0.12741239E+04</rscale>
<asrwt>0</asrwt>
<pdfrwt beam="1">  1        2 0.32147281E+00 0.12741239E+04</pdfrwt>
<pdfrwt beam="2">  1       -2 0.29880809E-01 0.12741239E+04</pdfrwt>
<totfact> 0.72658547E+01</totfact>
</mgrwt>
<rwgt>
<wgt id='morphing_basis_vector_1'> +3.1056161e-04 </wgt>
<wgt id='morphing_basis_vector_2'> +2.0447871e-04 </wgt>
<wgt id='morphing_basis_vector_3'> +3.1486296e-04 </wgt>
<wgt id='morphing_basis_vector_4'> +2.0151778e-04 </wgt>
<wgt id='morphing_basis_vector_5'> +3.2518492e-04 </wgt>
</rwgt>
</event>
<event>
 4      1 +7.8865000e-07 1.12177700e+03 7.81860800e-03 8.57634300e-02
        2 -1    0    0  501    0 +0.0000000000e+00 +0.0000000000e+00 +1.3078696693e+03 1.3078696693e+03 0.0000000000e+00 0.0000e+00 1.0000e+00
       -2 -1    0    0    0  501 -0.0000000000e+00 -0.0000000000e+00 -2.4054053423e+02 2.4054053423e+02 0.0000000000e+00 0.0000e+00 -1.0000e+00
      -13  1    1    2    0    0 -4.7305129117e+02 +5.9496377846e+01 +9.4145108510e+02 1.0552949771e+03 0.0000000000e+00 0.0000e+00 1.0000e+00
       13  1    1    2    0    0 +4.7305129117e+02 -5.9496377846e+01 +1.2587804994e+02 4.9311522640e+02 0.0000000000e+00 0.0000e+00 -1.0000e+00
<mgrwt>
<rscale>  0 0.11217766E+04</rscale>
<asrwt>0</asrwt>
<pdfrwt beam="1">  1        2 0.20121072E+00 0.11217766E+04</pdfrwt>
<pdfrwt beam="2">  1       -2 0.37006237E-01 0.11217766E+04</pdfrwt>
<totfact> 0.13656401E+02</totfact>
</mgrwt>
<rwgt>
<wgt id='morphing_basis_vector_1'> +2.2789022e-04 </wgt>
<wgt id='morphing_basis_vector_2'> +2.3306804e-04 </wgt>
<wgt id='morphing_basis_vector_3'> +2.2805226e-04 </wgt>
<wgt id='morphing_basis_vector_4'> +5.8015652e-05 </wgt>
<wgt id='morphing_basis_vector_5'> +1.8575088e-04 </wgt>
</rwgt>
</event>
<event>
 4      1 +7.8865000e-07 1.27964200e+03 7.81860800e-03 8.45578600e-02
        2 -1    0    0  501    0 +0.0000000000e+00 +0.0000000000e+00 +5.2408159731e+02 5.2408159731e+02 0.0000000000e+00 0.0000e+00 -1.0000e+00
       -2 -1    0    0    0  501 -0.0000000000e+00 -0.0000000000e+00 -7.8112034006e+02 7.8112034006e+02 0.0000000000e+00 0.0000e+00 1.0000e+00
      -13  1    1    2    0    0 +4.3872363744e+02 -4.4617456779e+02 -2.6467973320e+02 6.7941558427e+02 0.0000000000e+00 0.0000e+00 1.0000e+00
       13  1    1    2    0    0 -4.3872363744e+02 +4.4617456779e+02 +7.6409904625e+00 6.2578635310e+02 0.0000000000e+00 0.0000e+00 -1.0000e+00
<mgrwt>
<rscale>  0 0.12796418E+04</rscale>
<asrwt>0</asrwt>
<pdfrwt beam="1">  1        2 0.80627939E-01 0.12796418E+04</pdfrwt>
<pdfrwt beam="2">  1       -2 0.12017236E+00 0.12796418E+04</pdfrwt>
<totfact> 0.36715536E+01</totfact>
</mgrwt>
<rwgt>
<wgt id='morphing_basis_vector_1'> +3.1896265e-04 </wgt>
<wgt id='morphing_basis_vector_2'> +2.1769522e-04 </wgt>
<wgt id='morphing_basis_vector_3'> +3.2419231e-04 </wgt>
<wgt id='morphing_basis_vector_4'> +1.9946794e-04 </wgt>
<wgt id='morphing_basis_vector_5'> +3.3074459e-04 </wgt>
</rwgt>
</event>
<event>
 4      1 +7.8865000e-07 1.07408300e+03 7.81860800e-03 8.61690500e-02
        2 -1    0    0  501    0 +0.0000000000e+00 +0.0000000000e+00 +6.7376763718e+02 6.7376763718e+02 0.0000000000e+00 0.0000e+00 -1.0000e+00
       -2 -1    0    0    0  501 -0.0000000000e+00 -0.0000000000e+00 -4.2806061602e+02 4.2806061602e+02 0.0000000000e+00 0.0000e+00 1.0000e+00
      -13  1    1    2    0    0 -1.6701559197e+02 +1.6592703609e+02 -3.7230291276e+02 4.4049454948e+02 0.0000000000e+00 0.0000e+00 1.0000e+00
       13  1    1    2    0    0 +1.6701559197e+02 -1.6592703609e+02 +6.1800993392e+02 6.6133370373e+02 0.0000000000e+00 0.0000e+00 -1.0000e+00
<mgrwt>
<rscale>  0 0.10740827E+04</rscale>
<asrwt>0</asrwt>
<pdfrwt beam="1">  1        2 0.10365656E+00 0.10740827E+04</pdfrwt>
<pdfrwt beam="2">  1       -2 0.65855479E-01 0.10740827E+04</pdfrwt>
<totfact> 0.11295277E+02</totfact>
</mgrwt>
<rwgt>
<wgt id='morphing_basis_vector_1'> +1.6210913e-04 </wgt>
<wgt id='morphing_basis_vector_2'> +1.0240142e-04 </wgt>
<wgt id='morphing_basis_vector_3'> +1.5871127e-04 </wgt>
<wgt id='morphing_basis_vector_4'> +9.9390994e-05 </wgt>
<wgt id='morphing_basis_vector_5'> +1.5755812e-04 </wgt>
</rwgt>
</event>
<event>
 4      1 +7.8865000e-07 1.14482600e+03 7.81860800e-03 8.55748000e-02
        2 -1    0    0  501    0 +0.0000000000e+00 +0.0000000000e+00 +2.5469770363e+03 2.5469770363e+03 0.0000000000e+00 0.0000e+00 -1.0000e+00
       -2 -1    0    0    0  501 -0.0000000000e+00 -0.0000000000e+00 -1.2864519760e+02 1.2864519760e+02 0.0000000000e+00 0.0000e+00 1.0000e+00
      -13  1    1    2    0    0 -2.8068334005e+02 -3.4087905810e+02 +3.5787197361e+02 5.6837841191e+02 0.0000000000e+00 0.0000e+00 1.0000e+00
       13  1    1    2    0    0 +2.8068334005e+02 +3.4087905810e+02 +2.0604598651e+03 2.1072438220e+03 0.0000000000e+00 0.0000e+00 -1.0000e+00
<mgrwt>
<rscale>  0 0.11448255E+04</rscale>
<asrwt>0</asrwt>
<pdfrwt beam="1">  1        2 0.39184258E+00 0.11448255E+04</pdfrwt>
<pdfrwt beam="2">  1       -2 0.19791571E-01 0.11448255E+04</pdfrwt>
<totfact> 0.81149453E+01</totfact>
</mgrwt>
<rwgt>
<wgt id='morphing_basis_vector_1'> +2.0627430e-04 </wgt>
<wgt id='morphing_basis_vector_2'> +1.3226241e-04 </wgt>
<wgt id='morphing_basis_vector_3'> +2.0480269e-04 </wgt>
<wgt id='morphing_basis_vector_4'> +1.2976439e-04 </wgt>
<wgt id='morphing_basis_vector_5'> +2.0690876e-04 </wgt>
</rwgt>
</event>
<event>
 4      1 +7.8865000e-07 1.07294500e+03 7.81860800e-03 8.61789900e-02
        2 -1    0    0  501    0 +0.0000000000e+00 +0.0000000000e+00 +1.0862765117e+03 1.0862765117e+03 0.0000000000e+00 0.0000e+00 1.0000e+00
       -2 -1    0    0    0  501 -0.0000000000e+00 -0.0000000000e+00 -2.6494403372e+02 2.6494403372e+02 0.0000000000e+00 0.0000e+00 -1.0000e+00
      -13  1    1    2    0    0 +1.7139743033e+02 +3.0136886163e+01 -2.2840912074e+02 2.8715159319e+02 0.0000000000e+00 0.0000e+00 -1.0000e+00
       13  1    1    2    0    0 -1.7139743033e+02 -3.0136886163e+01 +1.0497415987e+03 1.0640689522e+03 0.0000000000e+00 0.0000e+00 1.0000e+00
<mgrwt>
<rscale>  0 0.10729445E+04</rscale>
<asrwt>0</asrwt>
<pdfrwt beam="1">  1        2 0.16711946E+00 0.10729445E+04</pdfrwt>
<pdfrwt beam="2">  1       -2 0.40760621E-01 0.10729445E+04</pdfrwt>
<totfact> 0.15435165E+02</totfact>
</mgrwt>
<rwgt>
<wgt id='morphing_basis_vector_1'> +1.6145557e-04 </wgt>
<wgt id='morphing_basis_vector_2'> +1.0194248e-04 </wgt>
<wgt id='morphing_basis_vector_3'> +1.5803250e-04 </wgt>
<wgt id='morphing_basis_vector_4'> +9.8963029e-05 </wgt>
<wgt id='morphing_basis_vector_5'> +1.5684372e-04 </wgt>
</rwgt>
</event>
<event>
 4      1 +7.8865000e-07 1.13858900e+03 7.81860800e-03 8.56253700e-02
        2 -1    0    0  501    0 +0.0000000000e+00 +0.0000000000e+00 +7.7432888530e+02 7.7432888530e+02 0.0000000000e+00 0.0000e+00 -1.0000e+00
       -2 -1    0    0    0  501 -0.0000000000e+00 -0.0000000000e+00 -4.1855143293e+02 4.1855143293e+02 0.0000000000e+00 0.0000e+00 1.0000e+00
      -13  1    1    2    0    0 -5.0848051958e+02 +1.0197956380e+01 -9.0121562735e+01 5.1650588881e+02 0.0000000000e+00 0.0000e+00 1.0000e+00
       13  1    1    2    0    0 +5.0848051958e+02 -1.0197956380e+01 +4.4589901510e+02 6.7637442942e+02 0.0000000000e+00 0.0000e+00 -1.0000e+00
<mgrwt>
<rscale>  0 0.11385894E+04</rscale>
<asrwt>0</asrwt>
<pdfrwt beam="1">  1        2 0.11912752E+00 0.11385894E+04</pdfrwt>
<pdfrwt beam="2">  1       -2 0.64392528E-01 0.11385894E+04</pdfrwt>
<totfact> 0.99185874E+01</totfact>
</mgrwt>
<rwgt>
<wgt id='morphing_basis_vector_1'> +2.0282726e-04 </wgt>
<wgt id='morphing_basis_vector_2'> +1.3173981e-04 </wgt>
<wgt id='morphing_basis_vector_3'> +2.0121694e-04 </wgt>
<wgt id='morphing_basis_vector_4'> +1.2554158e-04 </wgt>
<wgt id='morphing_basis_vector_5'> +2.0206965e-04 </wgt>
</rwgt>
</event>
<event>
 4      1 +7.8865000e-07 1.07701900e+03 7.81860800e-03 8.61434500e-02
        2 -1    0    0  501    0 +0.0000000000e+00 +0.0000000000e+00 +1.2205987510e+03 1.2205987510e+03 0.0000000000e+00 0.0000e+00 1.0000e+00
       -2 -1    0    0    0  501 -0.0000000000e+00 -0.0000000000e+00 -2.3758221237e+02 2.3758221237e+02 0.0000000000e+00 0.0000e+00 -1.0000e+00
      -13  1    1    2    0    0 +9.6005917807e+01 -4.4001086983e+02 +9.1783379710e+01 4.5962037663e+02 0.0000000000e+00 0.0000e+00 -1.0000e+00
       13  1    1    2    0    0 -9.6005917807e+01 +4.4001086983e+02 +8.9123315893e+02 9.9856058674e+02 0.0000000000e+00 0.0000e+00 1.0000e+00
<mgrwt>
<rscale>  0 0.10770191E+04</rscale>
<asrwt>0</asrwt>
<pdfrwt beam="1">  1        2 0.18778442E+00 0.10770191E+04</pdfrwt>
<pdfrwt beam="2">  1       -2 0.36551110E-01 0.10770191E+04</pdfrwt>
<totfact> 0.15730991E+02</totfact>
</mgrwt>
<rwgt>
<wgt id='morphing_basis_vector_1'> +1.6430120e-04 </wgt>
<wgt id='morphing_basis_vector_2'> +1.0509080e-04 </wgt>
<wgt id='morphing_basis_vector_3'> +1.6097855e-04 </wgt>
<wgt id='morphing_basis_vector_4'> +9.9696996e-05 </wgt>
<wgt id='morphing_basis_vector_5'> +1.5936135e-04 </wgt>
</rwgt>
</event>
<event>
 4      1 +7.8865000e-07 1.15776900e+03 7.81860800e-03 8.54709100e-02
        2 -1    0    0  501    0 +0.0000000000e+00 +0.0000000000e+00 +1.1810486869e+03 1.1810486869e+03 0.0000000000e+00 0.0000e+00 -1.0000e+00
       -2 -1    0    0    0  501 -0.0000000000e+00 -0.0000000000e+00 -2.8373682461e+02 2.8373682461e+02 0.0000000000e+00 0.0000e+00 1.0000e+00
      -13  1    1    2    0    0 -1.0630924902e+02 -5.3752688959e+02 +2.1240177984e+02 5.8766600168e+02 0.0000000000e+00 0.0000e+00 1.0000e+00
       13  1    1    2    0    0 +1.0630924902e+02 +5.3752688959e+02 +6.8491008241e+02 8.7711950978e+02 0.0000000000e+00 0.0000e+00 -1.0000e+00
<mgrwt>
<rscale>  0 0.11577686E+04</rscale>
<asrwt>0</asrwt>
<pdfrwt beam="1">  1        2 0.18169979E+00 0.11577686E+04</pdfrwt>
<pdfrwt beam="2">  1       -2 0.43651820E-01 0.11577686E+04</pdfrwt>
<totfact> 0.11843234E+02</totfact>
</mgrwt>
<rwgt>
<wgt id='morphing_basis_vector_1'> +2.1696082e-04 </wgt>
<wgt id='morphing_basis_vector_2'> +1.4348051e-04 </wgt>
<wgt id='morphing_basis_vector_3'> +2.1608888e-04 </wgt>
<wgt id='morphing_basis_vector_4'> +1.3311863e-04 </wgt>
<wgt id='morphing_basis_vector_5'> +2.1684557e-04 </wgt>
</rwgt>
</event>
<event>
 4      1 +7.8865000e-07 1.11890400e+03 7.81860800e-03 8.57872700e-02
        2 -1    0    0  501    0 +0.0000000000e+00 +0.0000000000e+00 +5.9731549008e+02 5.9731549008e+02 0.0000000000e+00 0.0000e+00 1.0000e+00
       -2 -1    0    0    0  501 -0.0000000000e+00 -0.0000000000e+00 -5.2398834299e+02 5.2398834299e+02 0.0000000000e+00 0.0000e+00 -1.0000e+00
      -13  1    1    2    0    0 +1.7410107927e+02 +1.2026282357e+02 -4.8233926038e+02 5.2671196554e+02 0.0000000000e+00 0.0000e+00 -1.0000e+00
       13  1    1    2    0    0 -1.7410107927e+02 -1.2026282357e+02 +5.5566640748e+02 5.9459186753e+02 0.0000000000e+00 0.0000e+00 1.0000e+00
<mgrwt>
<rscale>  0 0.11189037E+04</rscale>
<asrwt>0</asrwt>
<pdfrwt beam="1">  1        2 0.91894690E-01 0.11189037E+04</pdfrwt>
<pdfrwt beam="2">  1       -2 0.80613592E-01 0.11189037E+04</pdfrwt>
<totfact> 0.83678634E+01</totfact>
</mgrwt>
<rwgt>
<wgt id='morphing_basis_vector_1'> +1.8890399e-04 </wgt>
<wgt id='morphing_basis_vector_2'> +1.1993481e-04 </wgt>
<wgt id='morphing_basis_vector_3'> +1.8662516e-04 </wgt>
<wgt id='morphing_basis_vector_4'> +1.1833273e-04 </wgt>
<wgt id='morphing_basis_vector_5'> +1.8770074e-04 </wgt>
</rwgt>
</event>
<event>
 4      1 +7.8865000e-07 1.17072100e+03 7.81860800e-03 8.53683800e-02
        2 -1    0    0  501    0 +0.0000000000e+00 +0.0000000000e+00 +1.2620167061e+03 1.2620167061e+03 0.0000000000e+00 0.0000e+00 -1.0000e+00
       -2 -1    0    0    0  501 -0.0000000000e+00 -0.0000000000e+00 -2.7150720062e+02 2.7150720062e+02 0.0000000000e+00 0.0000e+00 1.0000e+00
      -13  1    1    2    0    0 -4.1698841843e+02 -1.3188762493e+02 -1.4382827237e+01 4.3758490883e+02 0.0000000000e+00 0.0000e+00 1.0000e+00
       13  1    1    2    0    0 +4.1698841843e+02 +1.3188762493e+02 +1.0048923327e+03 1.0959389978e+03 0.0000000000e+00 0.0000e+00 -1.0000e+00
<mgrwt>
<rscale>  0 0.11707205E+04</rscale>
<asrwt>0</asrwt>
<pdfrwt beam="1">  1        2 0.19415641E+00 0.11707205E+04</pdfrwt>
<pdfrwt beam="2">  1       -2 0.41770339E-01 0.11707205E+04</pdfrwt>
<totfact> 0.11541187E+02</totfact>
</mgrwt>
<rwgt>
<wgt id='morphing_basis_vector_1'> +2.2433527e-04 </wgt>
<wgt id='morphing_basis_vector_2'> +1.4403883e-04 </wgt>
<wgt id='morphing_basis_vector_3'> +2.2374056e-04 </wgt>
<wgt id='morphing_basis_vector_4'> +1.4279047e-04 </wgt>
<wgt id='morphing_basis_vector_5'> +2.2755479e-04 </wgt>
</rwgt>
</event>
<event>
 4      1 +7.8865000e-07 1.07905600e+03 7.81860800e-03 8.61257400e-02
        2 -1    0    0  501    0 +0.0000000000e+00 +0.0000000000e+00 +2.5359544678e+03 2.5359544678e+03 0.0000000000e+00 0.0000e+00 1.0000e+00
       -2 -1    0    0    0  501 -0.0000000000e+00 -0.0000000000e+00 -1.1478545778e+02 1.1478545778e+02 0.0000000000e+00 0.0000e+00 -1.0000e+00
      -13  1    1    2    0    0 -1.5430531534e+01 +4.6241676273e+02 +5.2882043391e+02 7.0265099094e+02 0.0000000000e+00 0.0000e+00 -1.0000e+00
       13  1    1    2    0    0 +1.5430531534e+01 -4.6241676273e+02 +1.8923485761e+03 1.9480889346e+03 0.0000000000e+00 0.0000e+00 1.0000e+00
<mgrwt>
<rscale>  0 0.10790564E+04</rscale>
<asrwt>0</asrwt>
<pdfrwt beam="1">  1        2 0.39014680E+00 0.10790564E+04</pdfrwt>
<pdfrwt beam="2">  1       -2 0.17659303E-01 0.10790564E+04</pdfrwt>
<totfact> 0.10017138E+02</totfact>
</mgrwt>
<rwgt>
<wgt id='morphing_basis_vector_1'> +1.6557877e-04 </wgt>
<wgt id='morphing_basis_vector_2'> +1.0620445e-04 </wgt>
<wgt id='morphing_basis_vector_3'> +1.6230565e-04 </wgt>
<wgt id='morphing_basis_vector_4'> +1.0032056e-04 </wgt>
<wgt id='morphing_basis_vector_5'> +1.6064741e-04 </wgt>
</rwgt>
</event>
<event>
 4      1 +7.8865000e-07 1.07677100e+03 7.81860800e-03 8.61456100e-02
        2 -1    0    0  501    0 +0.0000000000e+00 +0.0000000000e+00 +1.2815196541e+03 1.2815196541e+03 0.0000000000e+00 0.0000e+00 -1.0000e+00
       -2 -1    0    0    0  501 -0.0000000000e+00 -0.0000000000e+00 -2.2618383454e+02 2.2618383454e+02 0.0000000000e+00 0.0000e+00 1.0000e+00
      -13  1    1    2    0    0 +9.9316182795e+01 +2.3975540453e+02 -1.3282764783e+02 2.9152965921e+02 0.0000000000e+00 0.0000e+00 1.0000e+00
       13  1    1    2    0    0 -9.9316182795e+01 -2.3975540453e+02 +1.1881634674e+03 1.2161738294e+03 0.0000000000e+00 0.0000e+00 -1.0000e+00
<mgrwt>
<rscale>  0 0.10767712E+04</rscale>
<asrwt>0</asrwt>
<pdfrwt beam="1">  1        2 0.19715687E+00 0.10767712E+04</pdfrwt>
<pdfrwt beam="2">  1       -2 0.34797514E-01 0.10767712E+04</pdfrwt>
<totfact> 0.15870482E+02</totfact>
</mgrwt>
<rwgt>
<wgt id='morphing_basis_vector_1'> +1.6363919e-04 </wgt>
<wgt id='morphing_basis_vector_2'> +1.0342576e-04 </wgt>
<wgt id='morphing_basis_vector_3'> +1.6030123e-04 </wgt>
<wgt id='morphing_basis_vector_4'> +1.0044262e-04 </wgt>
<wgt id='morphing_basis_vector_5'> +1.5925736e-04 </wgt>
</rwgt>
</event>
<event>
 4      1 +7.8865000e-07 1.19796400e+03 7.81860800e-03 8.51572000e-02
        2 -1    0    0  501    0 +0.0000000000e+00 +0.0000000000e+00 +7.0907668047e+02 7.0907668047e+02 0.0000000000e+00 0.0000e+00 -1.0000e+00
       -2 -1    0    0    0  501 -0.0000000000e+00 -0.0000000000e+00 -5.0598136706e+02 5.0598136706e+02 0.0000000000e+00 0.0000e+00 1.0000e+00
      -13  1    1    2    0    0 +4.0521175829e+01 +3.0083903926e+02 -4.2218604313e+02 5.1998764240e+02 0.0000000000e+00 0.0000e+00 1.0000e+00
       13  1    1    2    0    0 -4.0521175829e+01 -3.0083903926e+02 +6.2528135654e+02 6.9507040512e+02 0.0000000000e+00 0.0000e+00 -1.0000e+00
<mgrwt>
<rscale>  0 0.11979643E+04</rscale>
<asrwt>0</asrwt>
<pdfrwt beam="1">  1        2 0.10908872E+00 0.11979643E+04</pdfrwt>
<pdfrwt beam="2">  1       -2 0.77843288E-01 0.11979643E+04</pdfrwt>
<totfact> 0.73240029E+01</totfact>
</mgrwt>
<rwgt>
<wgt id='morphing_basis_vector_1'> +2.4436264e-04 </wgt>
<wgt id='morphing_basis_vector_2'> +1.5650537e-04 </wgt>
<wgt id='morphing_basis_vector_3'> +2.4476711e-04 </wgt>
<wgt id='morphing_basis_vector_4'> +1.5794947e-04 </wgt>
<wgt id='morphing_basis_vector_5'> +2.5090165e-04 </wgt>
</rwgt>
</event>
<event>
 4      1 +7.8865000e-07 1.12152300e+03 7.81860800e-03 8.57655300e-02
        2 -1    0    0  501    0 +0.0000000000e+00 +0.0000000000e+00 +1.6551962127e+03 1.6551962127e+03 0.0000000000e+00 0.0000e+00 -1.0000e+00
       -2 -1    0    0    0  501 -0.0000000000e+00 -0.0000000000e+00 -1.8997950356e+02 1.8997950356e+02 0.0000000000e+00 0.0000e+00 1.0000e+00
      -13  1    1    2    0    0 +4.6282102194e+02 -3.3554137215e+01 +2.1462069391e+02 5.1126433547e+02 0.0000000000e+00 0.0000e+00 1.0000e+00
       13  1    1    2    0    0 -4.6282102194e+02 +3.3554137215e+01 +1.2505960153e+03 1.3339113808e+03 0.0000000000e+00 0.0000e+00 -1.0000e+00
<mgrwt>
<rscale>  0 0.11215228E+04</rscale>
<asrwt>0</asrwt>
<pdfrwt beam="1">  1        2 0.25464556E+00 0.11215228E+04</pdfrwt>
<pdfrwt beam="2">  1       -2 0.29227617E-01 0.11215228E+04</pdfrwt>
<totfact> 0.13343058E+02</totfact>
</mgrwt>
<rwgt>
<wgt id='morphing_basis_vector_1'> +1.9115194e-04 </wgt>
<wgt id='morphing_basis_vector_2'> +1.2278333e-04 </wgt>
<wgt id='morphing_basis_vector_3'> +1.8898383e-04 </wgt>
<wgt id='morphing_basis_vector_4'> +1.1854853e-04 </wgt>
<wgt id='morphing_basis_vector_5'> +1.8952061e-04 </wgt>
</rwgt>
</event>
<event>
 4      1 +7.8865000e-07 1.26218100e+03 7.81860800e-03 8.46819600e-02
        2 -1    0    0  501    0 +0.0000000000e+00 +0.0000000000e+00 +8.5283610801e+02 8.5283610801e+02 0.0000000000e+00 0.0000e+00 1.0000e+00
       -2 -1    0    0    0  501 -0.0000000000e+00 -0.0000000000e+00 -4.6700115740e+02 4.6700115740e+02 0.0000000000e+00 0.0000e+00 -1.0000e+00
      -13  1    1    2    0    0 +2.8007843214e+01 +2.5360030391e+02 +7.9650007776e+02 8.3636710080e+02 0.0000000000e+00 0.0000e+00 1.0000e+00
       13  1    1    2    0    0 -2.8007843214e+01 -2.5360030391e+02 -4.1066512714e+02 4.8347016462e+02 0.0000000000e+00 0.0000e+00 -1.0000e+00
<mgrwt>
<rscale>  0 0.12621814E+04</rscale>
<asrwt>0</asrwt>
<pdfrwt beam="1">  1        2 0.13120556E+00 0.12621814E+04</pdfrwt>
<pdfrwt beam="2">  1       -2 0.71846332E-01 0.12621814E+04</pdfrwt>
<totfact> 0.68724748E+01</totfact>
</mgrwt>
<rwgt>
<wgt id='morphing_basis_vector_1'> +4.0553241e-04 </wgt>
<wgt id='morphing_basis_vector_2'> +5.1459817e-04 </wgt>
<wgt id='morphing_basis_vector_3'> +4.2801345e-04 </wgt>
<wgt id='morphing_basis_vector_4'> +7.8700804e-06 </wgt>
<wgt id='morphing_basis_vector_5'> +2.9962964e-04 </wgt>
</rwgt>
</event>
<event>
 4      1 +7.8865000e-07 1.07650100e+03 7.81860800e-03 8.61479600e-02
        2 -1    0    0  501    0 +0.0000000000e+00 +0.0000000000e+00 +7.3764622811e+02 7.3764622811e+02 0.0000000000e+00 0.0000e+00 1.0000e+00
       -2 -1    0    0    0  501 -0.0000000000e+00 -0.0000000000e+00 -3.9275402854e+02 3.9275402854e+02 0.0000000000e+00 0.0000e+00 -1.0000e+00
      -13  1    1    2    0    0 +2.0862071382e+00 -2.8418095095e+02 +6.5244410125e+02 7.1165052547e+02 0.0000000000e+00 0.0000e+00 1.0000e+00
       13  1    1    2    0    0 -2.0862071382e+00 +2.8418095095e+02 -3.0755190168e+02 4.1874973119e+02 0.0000000000e+00 0.0000e+00 -1.0000e+00
<mgrwt>
<rscale>  0 0.10765009E+04</rscale>
<asrwt>0</asrwt>
<pdfrwt beam="1">  1        2 0.11348403E+00 0.10765009E+04</pdfrwt>
<pdfrwt beam="2">  1       -2 0.60423697E-01 0.10765009E+04</pdfrwt>
<totfact> 0.12078496E+02</totfact>
</mgrwt>
<rwgt>
<wgt id='morphing_basis_vector_1'> +2.2002130e-04 </wgt>
<wgt id='morphing_basis_vector_2'> +2.7393358e-04 </wgt>
<wgt id='morphing_basis_vector_3'> +2.1770515e-04 </wgt>
<wgt id='morphing_basis_vector_4'> +8.7618069e-06 </wgt>
<wgt id='morphing_basis_vector_5'> +1.5328526e-04 </wgt>
</rwgt>
</event>
<event>
 4      1 +7.8865000e-07 1.25705100e+03 7.81860800e-03 8.47188300e-02
        2 -1    0    0  501    0 +0.0000000000e+00 +0.0000000000e+00 +2.1584562481e+02 2.1584562481e+02 0.0000000000e+00 0.0000e+00 -1.0000e+00
       -2 -1    0    0    0  501 -0.0000000000e+00 -0.0000000000e+00 -1.8302158591e+03 1.8302158591e+03 0.0000000000e+00 0.0000e+00 1.0000e+00
      -13  1    1    2    0    0 -3.0652333671e+02 +3.7077019303e+02 -1.4655703883e+03 1.5425056418e+03 0.0000000000e+00 0.0000e+00 1.0000e+00
       13  1    1    2    0    0 +3.0652333671e+02 -3.7077019303e+02 -1.4879984606e+02 5.0355584216e+02 0.0000000000e+00 0.0000e+00 -1.0000e+00
<mgrwt>
<rscale>  0 0.12570507E+04</rscale>
<asrwt>0</asrwt>
<pdfrwt beam="1">  1        2 0.33207018E-01 0.12570507E+04</pdfrwt>
<pdfrwt beam="2">  1       -2 0.28157168E+00 0.12570507E+04</pdfrwt>
<totfact> 0.60876175E+00</totfact>
</mgrwt>
<rwgt>
<wgt id='morphing_basis_vector_1'> +2.9379490e-04 </wgt>
<wgt id='morphing_basis_vector_2'> +1.9029700e-04 </wgt>
<wgt id='morphing_basis_vector_3'> +2.9695526e-04 </wgt>
<wgt id='morphing_basis_vector_4'> +1.9258331e-04 </wgt>
<wgt id='morphing_basis_vector_5'> +3.0739129e-04 </wgt>
</rwgt>
</event>
<event>
 4      1 +7.8865000e-07 1.14624000e+03 7.81860800e-03 8.55633700e-02
        2 -1    0    0  501    0 +0.0000000000e+00 +0.0000000000e+00 +2.1351056874e+03 2.1351056874e+03 0.0000000000e+00 0.0000e+00 -1.0000e+00
       -2 -1    0    0    0  501 -0.0000000000e+00 -0.0000000000e+00 -1.5384100686e+02 1.5384100686e+02 0.0000000000e+00 0.0000e+00 1.0000e+00
      -13  1    1    2    0    0 +3.4921179570e+02 -2.1910229038e+02 +1.7856763513e+03 1.8326469173e+03 0.0000000000e+00 0.0000e+00 1.0000e+00
       13  1    1    2    0    0 -3.4921179570e+02 +2.1910229038e+02 +1.9558832922e+02 4.5629977694e+02 0.0000000000e+00 0.0000e+00 -1.0000e+00
<mgrwt>
<rscale>  0 0.11462405E+04</rscale>
<asrwt>0</asrwt>
<pdfrwt beam="1">  1        2 0.32847778E+00 0.11462405E+04</pdfrwt>
<pdfrwt beam="2">  1       -2 0.23667849E-01 0.11462405E+04</pdfrwt>
<totfact> 0.10381298E+02</totfact>
</mgrwt>
<rwgt>
<wgt id='morphing_basis_vector_1'> +2.6537459e-04 </wgt>
<wgt id='morphing_basis_vector_2'> +3.0787020e-04 </wgt>
<wgt id='morphing_basis_vector_3'> +2.6895381e-04 </wgt>
<wgt id='morphing_basis_vector_4'> +3.2933411e-05 </wgt>
<wgt id='morphing_basis_vector_5'> +2.0155685e-04 </wgt>
</rwgt>
</event>
<event>
 4      1 +7.8865000e-07 1.08100100e+03 7.81860800e-03 8.61088800e-02
        2 -1    0    0  501    0 +0.0000000000e+00 +0.0000000000e+00 +4.6699529101e+02 4.6699529101e+02 0.0000000000e+00 0.0000e+00 1.0000e+00
       -2 -1    0    0    0  501 -0.0000000000e+00 -0.0000000000e+00 -6.2557489883e+02 6.2557489883e+02 0.0000000000e+00 0.0000e+00 -1.0000e+00
      -13  1    1    2    0    0 -2.7399765445e+02 -4.6228084347e+02 -1.3789521775e+02 5.5479129766e+02 0.0000000000e+00 0.0000e+00 -1.0000e+00
       13  1    1    2    0    0 +2.7399765445e+02 +4.6228084347e+02 -2.0684390072e+01 5.3777889218e+02 0.0000000000e+00 0.0000e+00 1.0000e+00
<mgrwt>
<rscale>  0 0.10810005E+04</rscale>
<asrwt>0</asrwt>
<pdfrwt beam="1">  1        2 0.71845429E-01 0.10810005E+04</pdfrwt>
<pdfrwt beam="2">  1       -2 0.96242292E-01 0.10810005E+04</pdfrwt>
<totfact> 0.73864326E+01</totfact>
</mgrwt>
<rwgt>
<wgt id='morphing_basis_vector_1'> +1.7003616e-04 </wgt>
<wgt id='morphing_basis_vector_2'> +1.1702369e-04 </wgt>
<wgt id='morphing_basis_vector_3'> +1.6688528e-04 </wgt>
<wgt id='morphing_basis_vector_4'> +9.5671148e-05 </wgt>
<wgt id='morphing_basis_vector_5'> +1.6154830e-04 </wgt>
</rwgt>
</event>
<event>
 4      1 +7.8865000e-07 1.20332900e+03 7.81860800e-03 8.51163100e-02
        2 -1    0    0  501    0 +0.0000000000e+00 +0.0000000000e+00 +8.3849717395e+02 8.3849717395e+02 0.0000000000e+00 0.0000e+00 1.0000e+00
       -2 -1    0    0    0  501 -0.0000000000e+00 -0.0000000000e+00 -4.3172491781e+02 4.3172491781e+02 0.0000000000e+00 0.0000e+00 -1.0000e+00
      -13  1    1    2    0    0 -1.6729961982e+02 +3.3384617082e+02 +7.0137153242e+02 7.9458445433e+02 0.0000000000e+00 0.0000e+00 1.0000e+00
       13  1    1    2    0    0 +1.6729961982e+02 -3.3384617082e+02 -2.9459927628e+02 4.7563763744e+02 0.0000000000e+00 0.0000e+00 -1.0000e+00
<mgrwt>
<rscale>  0 0.12033289E+04</rscale>
<asrwt>0</asrwt>
<pdfrwt beam="1">  1        2 0.12899957E+00 0.12033289E+04</pdfrwt>
<pdfrwt beam="2">  1       -2 0.66419218E-01 0.12033289E+04</pdfrwt>
<totfact> 0.83472756E+01</totfact>
</mgrwt>
<rwgt>
<wgt id='morphing_basis_vector_1'> +3.2905533e-04 </wgt>
<wgt id='morphing_basis_vector_2'> +4.0112213e-04 </wgt>
<wgt id='morphing_basis_vector_3'> +3.4048259e-04 </wgt>
<wgt id='morphing_basis_vector_4'> +2.2617289e-05 </wgt>
<wgt id='morphing_basis_vector_5'> +2.4629515e-04 </wgt>
</rwgt>
</event>
<event>
 4      1 +7.8865000e-07 1.20645000e+03 7.81860800e-03 8.50926200e-02
        2 -1    0    0  501    0 +0.0000000000e+00 +0.0000000000e+00 +1.1706940903e+03 1.1706940903e+03 0.0000000000e+00 0.0000e+00 1.0000e+00
       -2 -1    0    0    0  501 -0.0000000000e+00 -0.0000000000e+00 -3.1082472512e+02 3.1082472512e+02 0.0000000000e+00 0.0000e+00 -1.0000e+00
      -13  1    1    2    0    0 +4.7058203651e+00 +2.2641834276e+02 -2.5663952951e+02 3.4227366067e+02 0.0000000000e+00 0.0000e+00 -1.0000e+00
       13  1    1    2    0    0 -4.7058203651e+00 -2.2641834276e+02 +1.1165088946e+03 1.1392451547e+03 0.0000000000e+00 0.0000e+00 1.0000e+00
<mgrwt>
<rscale>  0 0.12064504E+04</rscale>
<asrwt>0</asrwt>
<pdfrwt beam="1">  1        2 0.18010678E+00 0.12064504E+04</pdfrwt>
<pdfrwt beam="2">  1       -2 0.47819189E-01 0.12064504E+04</pdfrwt>
<totfact> 0.10043952E+02</totfact>
</mgrwt>
<rwgt>
<wgt id='morphing_basis_vector_1'> +2.5093720e-04 </wgt>
<wgt id='morphing_basis_vector_2'> +1.6074783e-04 </wgt>
<wgt id='morphing_basis_vector_3'> +2.5168261e-04 </wgt>
<wgt id='morphing_basis_vector_4'> +1.6279310e-04 </wgt>
<wgt id='morphing_basis_vector_5'> +2.5851369e-04 </wgt>
</rwgt>
</event>
<event>
 4      1 +7.8865000e-07 1.14672500e+03 7.81860800e-03 8.55594600e-02
        2 -1    0    0  501    0 +0.0000000000e+00 +0.0000000000e+00 +9.8138008156e+02 9.8138008156e+02 0.0000000000e+00 0.0000e+00 1.0000e+00
       -2 -1    0    0    0  501 -0.0000000000e+00 -0.0000000000e+00 -3.3498200868e+02 3.3498200868e+02 0.0000000000e+00 0.0000e+00 -1.0000e+00
      -13  1    1    2    0    0 +4.4344598371e+02 -1.6272714253e+02 -4.9870268977e+01 4.7498579675e+02 0.0000000000e+00 0.0000e+00 -1.0000e+00
       13  1    1    2    0    0 -4.4344598371e+02 +1.6272714253e+02 +6.9626834185e+02 8.4137629349e+02 0.0000000000e+00 0.0000e+00 1.0000e+00
<mgrwt>
<rscale>  0 0.11467252E+04</rscale>
<asrwt>0</asrwt>
<pdfrwt beam="1">  1        2 0.15098155E+00 0.11467252E+04</pdfrwt>
<pdfrwt beam="2">  1       -2 0.51535694E-01 0.11467252E+04</pdfrwt>
<totfact> 0.11347496E+02</totfact>
</mgrwt>
<rwgt>
<wgt id='morphing_basis_vector_1'> +2.0778608e-04 </wgt>
<wgt id='morphing_basis_vector_2'> +1.3378066e-04 </wgt>
<wgt id='morphing_basis_vector_3'> +2.0639502e-04 </wgt>
<wgt id='morphing_basis_vector_4'> +1.3030981e-04 </wgt>
<wgt id='morphing_basis_vector_5'> +2.0834956e-04 </wgt>
</rwgt>
</event>
<event>
 4      1 +7.8865000e-07 1.09796100e+03 7.81860800e-03 8.59633200e-02
        2 -1    0    0  501    0 +0.0000000000e+00 +0.0000000000e+00 +1.1312962335e+03 1.1312962335e+03 0.0000000000e+00 0.0000e+00 -1.0000e+00
       -2 -1    0    0    0  501 -0.0000000000e+00 -0.0000000000e+00 -2.6640216632e+02 2.6640216632e+02 0.0000000000e+00 0.0000e+00 1.0000e+00
      -13  1    1    2    0    0 +4.4622611680e+01 +2.5596929653e+02 -1.8317210588e+02 3.1790482634e+02 0.0000000000e+00 0.0000e+00 1.0000e+00
       13  1    1    2    0    0 -4.4622611680e+01 -2.5596929653e+02 +1.0480661731e+03 1.0797935735e+03 0.0000000000e+00 0.0000e+00 -1.0000e+00
<mgrwt>
<rscale>  0 0.10979613E+04</rscale>
<asrwt>0</asrwt>
<pdfrwt beam="1">  1        2 0.17404557E+00 0.10979613E+04</pdfrwt>
<pdfrwt beam="2">  1       -2 0.40984949E-01 0.10979613E+04</pdfrwt>
<totfact> 0.14334294E+02</totfact>
</mgrwt>
<rwgt>
<wgt id='morphing_basis_vector_1'> +1.7600602e-04 </wgt>
<wgt id='morphing_basis_vector_2'> +1.1151985e-04 </wgt>
<wgt id='morphing_basis_vector_3'> +1.7317161e-04 </wgt>
<wgt id='morphing_basis_vector_4'> +1.0915767e-04 </wgt>
<wgt id='morphing_basis_vector_5'> +1.7313345e-04 </wgt>
</rwgt>
</event>
<event>
 4      1 +7.8865000e-07 1.25833800e+03 7.81860800e-03 8.47095600e-02
        2 -1    0    0  501    0 +0.0000000000e+00 +0.0000000000e+00 +4.3861188546e+02 4.3861188546e+02 0.0000000000e+00 0.0000e+00 -1.0000e+00
       -2 -1    0    0    0  501 -0.0000000000e+00 -0.0000000000e+00 -9.0251514339e+02 9.0251514339e+02 0.0000000000e+00 0.0000e+00 1.0000e+00
      -13  1    1    2    0    0 +9.5721298421e+01 -2.3473720409e+02 -8.4567550516e+02 8.8285399811e+02 0.0000000000e+00 0.0000e+00 1.0000e+00
       13  1    1    2    0    0 -9.5721298421e+01 +2.3473720409e+02 +3.8177224722e+02 4.5827303074e+02 0.0000000000e+00 0.0000e+00 -1.0000e+00
<mgrwt>
<rscale>  0 0.12583384E+04</rscale>
<asrwt>0</asrwt>
<pdfrwt beam="1">  1        2 0.67478752E-01 0.12583384E+04</pdfrwt>
<pdfrwt beam="2">  1       -2 0.13884848E+00 0.12583384E+04</pdfrwt>
<totfact> 0.30601966E+01</totfact>
</mgrwt>
<rwgt>
<wgt id='morphing_basis_vector_1'> +2.9441177e-04 </wgt>
<wgt id='morphing_basis_vector_2'> +1.8947339e-04 </wgt>
<wgt id='morphing_basis_vector_3'> +2.9754543e-04 </wgt>
<wgt id='morphing_basis_vector_4'> +1.9434011e-04 </wgt>
<wgt id='morphing_basis_vector_5'> +3.0878366e-04 </wgt>
</rwgt>
</event>
<event>
 4      1 +7.8865000e-07 1.08254000e+03 7.81860800e-03 8.60955600e-02
        2 -1    0    0  501    0 +0.0000000000e+00 +0.0000000000e+00 +1.7469911974e+03 1.7469911974e+03 0.0000000000e+00 0.0000e+00 1.0000e+00
       -2 -1    0    0    0  501 -0.0000000000e+00 -0.0000000000e+00 -1.6770153744e+02 1.6770153744e+02 0.0000000000e+00 0.0000e+00 -1.0000e+00
      -13  1    1    2    0    0 -4.5778793364e+02 -2.8002206348e+02 +6.6469164732e+02 8.5428164808e+02 0.0000000000e+00 0.0000e+00 1.0000e+00
       13  1    1    2    0    0 +4.5778793364e+02 +2.8002206348e+02 +9.1459801266e+02 1.0604110868e+03 0.0000000000e+00 0.0000e+00 -1.0000e+00
<mgrwt>
<rscale>  0 0.10825398E+04</rscale>
<asrwt>0</asrwt>
<pdfrwt beam="1">  1        2 0.26876786E+00 0.10825398E+04</pdfrwt>
<pdfrwt beam="2">  1       -2 0.25800238E-01 0.10825398E+04</pdfrwt>
<totfact> 0.14802233E+02</totfact>
</mgrwt>
<rwgt>
<wgt id='morphing_basis_vector_1'> +1.7060180e-04 </wgt>
<wgt id='morphing_basis_vector_2'> +1.1663828e-04 </wgt>
<wgt id='morphing_basis_vector_3'> +1.6748494e-04 </wgt>
<wgt id='morphing_basis_vector_4'> +9.6807667e-05 </wgt>
<wgt id='morphing_basis_vector_5'> +1.6257220e-04 </wgt>
</rwgt>
</event>
<event>
 4      1 +7.8865000e-07 1.23737400e+03 7.81860800e-03 8.48619500e-02
        2 -1    0    0  501    0 +0.0000000000e+00 +0.0000000000e+00 +1.3070407092e+03 1.3070407092e+03 0.0000000000e+00 0.0000e+00 -1.0000e+00
       -2 -1    0    0    0  501 -0.0000000000e+00 -0.0000000000e+00 -2.9285498751e+02 2.9285498751e+02 0.0000000000e+00 0.0000e+00 1.0000e+00
      -13  1    1    2    0    0 +5.6657354362e+02 +1.9210282794e+02 +3.0321078641e+02 6.7070549262e+02 0.0000000000e+00 0.0000e+00 1.0000e+00
       13  1    1    2    0    0 -5.6657354362e+02 -1.9210282794e+02 +7.1097493532e+02 9.2919020415e+02 0.0000000000e+00 0.0000e+00 -1.0000e+00
<mgrwt>
<rscale>  0 0.12373737E+04</rscale>
<asrwt>0</asrwt>
<pdfrwt beam="1">  1        2 0.20108318E+00 0.12373737E+04</pdfrwt>
<pdfrwt beam="2">  1       -2 0.45054614E-01 0.12373737E+04</pdfrwt>
<totfact> 0.93716781E+01</totfact>
</mgrwt>
<rwgt>
<wgt id='morphing_basis_vector_1'> +2.7994314e-04 </wgt>
<wgt id='morphing_basis_vector_2'> +1.8864656e-04 </wgt>
<wgt id='morphing_basis_vector_3'> +2.8265251e-04 </wgt>
<wgt id='morphing_basis_vector_4'> +1.7459462e-04 </wgt>
<wgt id='morphing_basis_vector_5'> +2.8723046e-04 </wgt>
</rwgt>
</event>
<event>
 4      1 +7.8865000e-07 1.24659600e+03 7.81860800e-03 8.47945200e-02
        2 -1    0    0  501    0 +0.0000000000e+00 +0.0000000000e+00 +1.2670041140e+03 1.2670041140e+03 0.0000000000e+00 0.0000e+00 1.0000e+00
       -2 -1    0    0    0  501 -0.0000000000e+00 -0.0000000000e+00 -3.0662928884e+02 3.0662928884e+02 0.0000000000e+00 0.0000e+00 -1.0000e+00
      -13  1    1    2    0    0 +2.3684117844e+02 -1.5005999784e+02 -2.2252996961e+02 3.5795437437e+02 0.0000000000e+00 0.0000e+00 -1.0000e+00
       13  1    1    2    0    0 -2.3684117844e+02 +1.5005999784e+02 +1.1829047948e+03 1.2156790285e+03 0.0000000000e+00 0.0000e+00 1.0000e+00
<mgrwt>
<rscale>  0 0.12465963E+04</rscale>
<asrwt>0</asrwt>
<pdfrwt beam="1">  1        2 0.19492371E+00 0.12465963E+04</pdfrwt>
<pdfrwt beam="2">  1       -2 0.47173738E-01 0.12465963E+04</pdfrwt>
<totfact> 0.90371201E+01</totfact>
</mgrwt>
<rwgt>
<wgt id='morphing_basis_vector_1'> +2.8412123e-04 </wgt>
<wgt id='morphing_basis_vector_2'> +1.8270295e-04 </wgt>
<wgt id='morphing_basis_vector_3'> +2.8667483e-04 </wgt>
<wgt id='morphing_basis_vector_4'> +1.8681057e-04 </wgt>
<wgt id='morphing_basis_vector_5'> +2.9682537e-04 </wgt>
</rwgt>
</event>
<event>
 4      1 +7.8865000e-07 1.14864600e+03 7.81860800e-03 8.55439900e-02
        2 -1    0    0  501    0 +0.0000000000e+00 +0.0000000000e+00 +1.0011095427e+03 1.0011095427e+03 0.0000000000e+00 0.0000e+00 1.0000e+00
       -2 -1    0    0    0  501 -0.0000000000e+00 -0.0000000000e+00 -3.2948125103e+02 3.2948125103e+02 0.0000000000e+00 0.0000e+00 -1.0000e+00
      -13  1    1    2    0    0 -3.6762010213e+01 +3.3413587100e+02 -2.0361781579e+02 3.9301201074e+02 0.0000000000e+00 0.0000e+00 -1.0000e+00
       13  1    1    2    0    0 +3.6762010213e+01 -3.3413587100e+02 +8.7524610749e+02 9.3757878301e+02 0.0000000000e+00 0.0000e+00 1.0000e+00
<mgrwt>
<rscale>  0 0.11486459E+04</rscale>
<asrwt>0</asrwt>
<pdfrwt beam="1">  1        2 0.15401685E+00 0.11486459E+04</pdfrwt>
<pdfrwt beam="2">  1       -2 0.50689424E-01 0.11486459E+04</pdfrwt>
<totfact> 0.11394155E+02</totfact>
</mgrwt>
<rwgt>
<wgt id='morphing_basis_vector_1'> +2.0855909e-04 </wgt>
<wgt id='morphing_basis_vector_2'> +1.3302754e-04 </wgt>
<wgt id='morphing_basis_vector_3'> +2.0718355e-04 </wgt>
<wgt id='morphing_basis_vector_4'> +1.3214444e-04 </wgt>
<wgt id='morphing_basis_vector_5'> +2.0989852e-04 </wgt>
</rwgt>
</event>
<event>
 4      1 +7.8865000e-07 1.24500400e+03 7.81860800e-03 8.48061300e-02
        2 -1    0    0  501    0 +0.0000000000e+00 +0.0000000000e+00 +2.0706165775e+02 2.0706165775e+02 0.0000000000e+00 0.0000e+00 1.0000e+00
       -2 -1    0    0    0  501 -0.0000000000e+00 -0.0000000000e+00 -1.8714641110e+03 1.8714641110e+03 0.0000000000e+00 0.0000e+00 -1.0000e+00
      -13  1    1    2    0    0 +4.0948980257e+02 -2.5624713656e+02 -1.4877066095e+03 1.5641660555e+03 0.0000000000e+00 0.0000e+00 -1.0000e+00
       13  1    1    2    0    0 -4.0948980257e+02 +2.5624713656e+02 -1.7669584381e+02 5.1435971326e+02 0.0000000000e+00 0.0000e+00 1.0000e+00
<mgrwt>
<rscale>  0 0.12450036E+04</rscale>
<asrwt>0</asrwt>
<pdfrwt beam="1">  1        2 0.31855639E-01 0.12450036E+04</pdfrwt>
<pdfrwt beam="2">  1       -2 0.28791756E+00 0.12450036E+04</pdfrwt>
<totfact> 0.57889457E+00</totfact>
</mgrwt>
<rwgt>
<wgt id='morphing_basis_vector_1'> +2.8328633e-04 </wgt>
<wgt id='morphing_basis_vector_2'> +1.8341721e-04 </wgt>
<wgt id='morphing_basis_vector_3'> +2.8585254e-04 </wgt>
<wgt id='morphing_basis_vector_4'> +1.8486494e-04 </wgt>
<wgt id='morphing_basis_vector_5'> +2.9516500e-04 </wgt>
</rwgt>
</event>
<event>
 4      1 +7.8865000e-07 1.19737100e+03 7.81860800e-03 8.51617300e-02
        2 -1    0    0  501    0 +0.0000000000e+00 +0.0000000000e+00 +1.9010006877e+02 1.9010006877e+02 0.0000000000e+00 0.0000e+00 1.0000e+00
       -2 -1    0    0    0  501 -0.0000000000e+00 -0.0000000000e+00 -1.8854520024e+03 1.8854520024e+03 0.0000000000e+00 0.0000e+00 -1.0000e+00
      -13  1    1    2    0    0 +3.3633335057e+02 +5.5651170442e+01 -1.7007730282e+03 1.7346025680e+03 0.0000000000e+00 0.0000e+00 -1.0000e+00
       13  1    1    2    0    0 -3.3633335057e+02 -5.5651170442e+01 +5.4210945225e+00 3.4094950321e+02 0.0000000000e+00 0.0000e+00 1.0000e+00
<mgrwt>
<rscale>  0 0.11973714E+04</rscale>
<asrwt>0</asrwt>
<pdfrwt beam="1">  1        2 0.29246163E-01 0.11973714E+04</pdfrwt>
<pdfrwt beam="2">  1       -2 0.29006955E+00 0.11973714E+04</pdfrwt>
<totfact> 0.62065678E+00</totfact>
</mgrwt>
<rwgt>
<wgt id='morphing_basis_vector_1'> +2.4394498e-04 </wgt>
<wgt id='morphing_basis_vector_2'> +1.5632240e-04 </wgt>
<wgt id='morphing_basis_vector_3'> +2.4433080e-04 </wgt>
<wgt id='morphing_basis_vector_4'> +1.5755223e-04 </wgt>
<wgt id='morphing_basis_vector_5'> +2.5037183e-04 </wgt>
</rwgt>
</event>
<event>
 4      1 +7.8865000e-07 1.16556000e+03 7.81860800e-03 8.54090600e-02
        2 -1    0    0  501    0 +0.0000000000e+00 +0.0000000000e+00 +1.0449938609e+03 1.0449938609e+03 0.0000000000e+00 0.0000e+00 1.0000e+00
       -2 -1    0    0    0  501 -0.0000000000e+00 -0.0000000000e+00 -3.2500922830e+02 3.2500922830e+02 0.0000000000e+00 0.0000e+00 -1.0000e+00
      -13  1    1    2    0    0 +1.8411211947e+02 +8.7695126581e+01 +1.0016859224e+03 1.0222340215e+03 0.0000000000e+00 0.0000e+00 1.0000e+00
       13  1    1    2    0    0 -1.8411211947e+02 -8.7695126581e+01 -2.8170128976e+02 3.4776906765e+02 0.0000000000e+00 0.0000e+00 -1.0000e+00
<mgrwt>
<rscale>  0 0.11655602E+04</rscale>
<asrwt>0</asrwt>
<pdfrwt beam="1">  1        2 0.16076828E+00 0.11655602E+04</pdfrwt>
<pdfrwt beam="2">  1       -2 0.50001420E-01 0.11655602E+04</pdfrwt>
<totfact> 0.10983252E+02</totfact>
</mgrwt>
<rwgt>
<wgt id='morphing_basis_vector_1'> +3.0050204e-04 </wgt>
<wgt id='morphing_basis_vector_2'> +3.8180247e-04 </wgt>
<wgt id='morphing_basis_vector_3'> +3.0795455e-04 </wgt>
<wgt id='morphing_basis_vector_4'> +5.0330571e-06 </wgt>
<wgt id='morphing_basis_vector_5'> +2.1431038e-04 </wgt>
</rwgt>
</event>
<event>
 4      1 +7.8865000e-07 1.20643200e+03 7.81860800e-03 8.50927600e-02
        2 -1    0    0  501    0 +0.0000000000e+00 +0.0000000000e+00 +9.7112734787e+02 9.7112734787e+02 0.0000000000e+00 0.0000e+00 -1.0000e+00
       -2 -1    0    0    0  501 -0.0000000000e+00 -0.0000000000e+00 -3.7468781629e+02 3.7468781629e+02 0.0000000000e+00 0.0000e+00 1.0000e+00
      -13  1    1    2    0    0 -1.6202560537e+02 +4.2018948585e+02 -1.4946653864e+02 4.7450157743e+02 0.0000000000e+00 0.0000e+00 1.0000e+00
       13  1    1    2    0    0 +1.6202560537e+02 -4.2018948585e+02 +7.4590607022e+02 8.7131358672e+02 0.0000000000e+00 0.0000e+00 -1.0000e+00
<mgrwt>
<rscale>  0 0.12064321E+04</rscale>
<asrwt>0</asrwt>
<pdfrwt beam="1">  1        2 0.14940421E+00 0.12064321E+04</pdfrwt>
<pdfrwt beam="2">  1       -2 0.57644280E-01 0.12064321E+04</pdfrwt>
<totfact> 0.91619541E+01</totfact>
</mgrwt>
<rwgt>
<wgt id='morphing_basis_vector_1'> +2.5131199e-04 </wgt>
<wgt id='morphing_basis_vector_2'> +1.6190734e-04 </wgt>
<wgt id='morphing_basis_vector_3'> +2.5210983e-04 </wgt>
<wgt id='morphing_basis_vector_4'> +1.6211313e-04 </wgt>
<wgt id='morphing_basis_vector_5'> +2.5845150e-04 </wgt>
</rwgt>
</event>
<event>
 4      1 +7.8865000e-07 1.12529200e+03 7.81860800e-03 8.57343500e-02
        2 -1    0    0  501    0 +0.0000000000e+00 +0.0000000000e+00 +7.9716528838e+02 7.9716528838e+02 0.0000000000e+00 0.0000e+00 -1.0000e+00
       -2 -1    0    0    0  501 -0.0000000000e+00 -0.0000000000e+00 -3.9712052638e+02 3.9712052638e+02 0.0000000000e+00 0.0000e+00 1.0000e+00
      -13  1    1    2    0    0 -3.0989174640e+02 -7.2327873179e+01 -2.9243820145e+02 4.3218551270e+02 0.0000000000e+00 0.0000e+00 1.0000e+00
       13  1    1    2    0    0 +3.0989174640e+02 +7.2327873179e+01 +6.9248296345e+02 7.6210030206e+02 0.0000000000e+00 0.0000e+00 -1.0000e+00
<mgrwt>
<rscale>  0 0.11252923E+04</rscale>
<asrwt>0</asrwt>
<pdfrwt beam="1">  1        2 0.12264081E+00 0.11252923E+04</pdfrwt>
<pdfrwt beam="2">  1       -2 0.61095466E-01 0.11252923E+04</pdfrwt>
<totfact> 0.10666968E+02</totfact>
</mgrwt>
<rwgt>
<wgt id='morphing_basis_vector_1'> +1.9304452e-04 </wgt>
<wgt id='morphing_basis_vector_2'> +1.2279221e-04 </wgt>
<wgt id='morphing_basis_vector_3'> +1.9095148e-04 </wgt>
<wgt id='morphing_basis_vector_4'> +1.2113293e-04 </wgt>
<wgt id='morphing_basis_vector_5'> +1.9231125e-04 </wgt>
</rwgt>
</event>
<event>
 4      1 +7.8865000e-07 1.20758400e+03 7.81860800e-03 8.50840400e-02
        2 -1    0    0  501    0 +0.0000000000e+00 +0.0000000000e+00 +9.8577410863e+02 9.8577410863e+02 0.0000000000e+00 0.0000e+00 -1.0000e+00
       -2 -1    0    0    0  501 -0.0000000000e+00 -0.0000000000e+00 -3.6982603626e+02 3.6982603626e+02 0.0000000000e+00 0.0000e+00 1.0000e+00
      -13  1    1    2    0    0 +1.7853246292e+02 +4.2336480517e+02 -1.3177239977e+02 4.7799117556e+02 0.0000000000e+00 0.0000e+00 1.0000e+00
       13  1    1    2    0    0 -1.7853246292e+02 -4.2336480517e+02 +7.4772047214e+02 8.7760896932e+02 0.0000000000e+00 0.0000e+00 -1.0000e+00
<mgrwt>
<rscale>  0 0.12075843E+04</rscale>
<asrwt>0</asrwt>
<pdfrwt beam="1">  1        2 0.15165755E+00 0.12075843E+04</pdfrwt>
<pdfrwt beam="2">  1       -2 0.56896314E-01 0.12075843E+04</pdfrwt>
<totfact> 0.92097378E+01</totfact>
</mgrwt>
<rwgt>
<wgt id='morphing_basis_vector_1'> +2.5227153e-04 </wgt>
<wgt id='morphing_basis_vector_2'> +1.6266002e-04 </wgt>
<wgt id='morphing_basis_vector_3'> +2.5312467e-04 </wgt>
<wgt id='morphing_basis_vector_4'> +1.6268134e-04 </wgt>
<wgt id='morphing_basis_vector_5'> +2.5949123e-04 </wgt>
</rwgt>
</event>
<event>
 4      1 +7.8865000e-07 1.13623100e+03 7.81860800e-03 8.56445900e-02
        2 -1    0    0  501    0 +0.0000000000e+00 +0.0000000000e+00 +9.5912797801e+02 9.5912797801e+02 0.0000000000e+00 0.0000e+00 -1.0000e+00
       -2 -1    0    0    0  501 -0.0000000000e+00 -0.0000000000e+00 -3.3650881896e+02 3.3650881896e+02 0.0000000000e+00 0.0000e+00 1.0000e+00
      -13  1    1    2    0    0 +1.2969803656e+02 +5.5307016474e+02 +3.0350582756e+02 6.4406830008e+02 0.0000000000e+00 0.0000e+00 1.0000e+00
       13  1    1    2    0    0 -1.2969803656e+02 -5.5307016474e+02 +3.1911333149e+02 6.5156849689e+02 0.0000000000e+00 0.0000e+00 -1.0000e+00
<mgrwt>
<rscale>  0 0.11362307E+04</rscale>
<asrwt>0</asrwt>
<pdfrwt beam="1">  1        2 0.14755815E+00 0.11362307E+04</pdfrwt>
<pdfrwt beam="2">  1       -2 0.51770588E-01 0.11362307E+04</pdfrwt>
<totfact> 0.11624246E+02</totfact>
</mgrwt>
<rwgt>
<wgt id='morphing_basis_vector_1'> +2.0701233e-04 </wgt>
<wgt id='morphing_basis_vector_2'> +1.4802751e-04 </wgt>
<wgt id='morphing_basis_vector_3'> +2.0577015e-04 </wgt>
<wgt id='morphing_basis_vector_4'> +1.1482414e-04 </wgt>
<wgt id='morphing_basis_vector_5'> +1.9966038e-04 </wgt>
</rwgt>
</event>
<event>
 4      1 +7.8865000e-07 1.14693600e+03 7.81860800e-03 8.55577600e-02
        2 -1    0    0  501    0 +0.0000000000e+00 +0.0000000000e+00 +1.4242131484e+03 1.4242131484e+03 0.0000000000e+00 0.0000e+00 -1.0000e+00
       -2 -1    0    0    0  501 -0.0000000000e+00 -0.0000000000e+00 -2.3091028844e+02 2.3091028844e+02 0.0000000000e+00 0.0000e+00 1.0000e+00
      -13  1    1    2    0    0 +3.6022308440e+02 +1.8383301706e+02 +1.1833852303e+03 1.2505822052e+03 0.0000000000e+00 0.0000e+00 1.0000e+00
       13  1    1    2    0    0 -3.6022308440e+02 -1.8383301706e+02 +9.9176296404e+00 4.0454123161e+02 0.0000000000e+00 0.0000e+00 -1.0000e+00
<mgrwt>
<rscale>  0 0.11469359E+04</rscale>
<asrwt>0</asrwt>
<pdfrwt beam="1">  1        2 0.21910971E+00 0.11469359E+04</pdfrwt>
<pdfrwt beam="2">  1       -2 0.35524660E-01 0.11469359E+04</pdfrwt>
<totfact> 0.12624173E+02</totfact>
</mgrwt>
<rwgt>
<wgt id='morphing_basis_vector_1'> +2.6745927e-04 </wgt>
<wgt id='morphing_basis_vector_2'> +3.1302762e-04 </wgt>
<wgt id='morphing_basis_vector_3'> +2.7123703e-04 </wgt>
<wgt id='morphing_basis_vector_4'> +3.0535604e-05 </wgt>
<wgt id='morphing_basis_vector_5'> +2.0191135e-04 </wgt>
</rwgt>
</event>
<event>
 4      1 +7.8865000e-07 1.27512500e+03 7.81860800e-03 8.45897600e-02
        2 -1    0    0  501    0 +0.0000000000e+00 +0.0000000000e+00 +4.6026379181e+02 4.6026379181e+02 0.0000000000e+00 0.0000e+00 1.0000e+00
       -2 -1    0    0    0  501 -0.0000000000e+00 -0.0000000000e+00 -8.8315874063e+02 8.8315874063e+02 0.0000000000e+00 0.0000e+00 -1.0000e+00
      -13  1    1    2    0    0 +5.4504634338e+02 -1.6563751447e+02 -5.1309497263e+02 7.6666665087e+02 0.0000000000e+00 0.0000e+00 -1.0000e+00
       13  1    1    2    0    0 -5.4504634338e+02 +1.6563751447e+02 +9.0200023810e+01 5.7675588157e+02 0.0000000000e+00 0.0000e+00 1.0000e+00
<mgrwt>
<rscale>  0 0.12751251E+04</rscale>
<asrwt>0</asrwt>
<pdfrwt beam="1">  1        2 0.70809815E-01 0.12751251E+04</pdfrwt>
<pdfrwt beam="2">  1       -2 0.13587057E+00 0.12751251E+04</pdfrwt>
<totfact> 0.30717661E+01</totfact>
</mgrwt>
<rwgt>
<wgt id='morphing_basis_vector_1'> +3.1137816e-04 </wgt>
<wgt id='morphing_basis_vector_2'> +2.0476691e-04 </wgt>
<wgt id='morphing_basis_vector_3'> +3.1571443e-04 </wgt>
<wgt id='morphing_basis_vector_4'> +2.0238260e-04 </wgt>
<wgt id='morphing_basis_vector_5'> +3.2627455e-04 </wgt>
</rwgt>
</event>
<event>
 4      1 +7.8865000e-07 1.19643900e+03 7.81860800e-03 8.51688600e-02
        2 -1    0    0  501    0 +0.0000000000e+00 +0.0000000000e+00 +2.8638385846e+03 2.8638385846e+03 0.0000000000e+00 0.0000e+00 -1.0000e+00
       -2 -1    0    0    0  501 -0.0000000000e+00 -0.0000000000e+00 -1.2496050702e+02 1.2496050702e+02 0.0000000000e+00 0.0000e+00 1.0000e+00
      -13  1    1    2    0    0 +2.9082399650e+02 -3.5520551101e+02 +4.1127967116e+02 6.1636070600e+02 0.0000000000e+00 0.0000e+00 1.0000e+00
       13  1    1    2    0    0 -2.9082399650e+02 +3.5520551101e+02 +2.3275984064e+03 2.3724383856e+03 0.0000000000e+00 0.0000e+00 -1.0000e+00
<mgrwt>
<rscale>  0 0.11964393E+04</rscale>
<asrwt>0</asrwt>
<pdfrwt beam="1">  1        2 0.44059050E+00 0.11964393E+04</pdfrwt>
<pdfrwt beam="2">  1       -2 0.19224696E-01 0.11964393E+04</pdfrwt>
<totfact> 0.54298579E+01</totfact>
</mgrwt>
<rwgt>
<wgt id='morphing_basis_vector_1'> +2.4359728e-04 </wgt>
<wgt id='morphing_basis_vector_2'> +1.5695985e-04 </wgt>
<wgt id='morphing_basis_vector_3'> +2.4399341e-04 </wgt>
<wgt id='morphing_basis_vector_4'> +1.5640172e-04 </wgt>
<wgt id='morphing_basis_vector_5'> +2.4950480e-04 </wgt>
</rwgt>
</event>
<event>
 4      1 +7.8865000e-07 1.27911400e+03 7.81860800e-03 8.45615800e-02
        2 -1    0    0  501    0 +0.0000000000e+00 +0.0000000000e+00 +5.6584690351e+02 5.6584690351e+02 0.0000000000e+00 0.0000e+00 1.0000e+00
       -2 -1    0    0    0  501 -0.0000000000e+00 -0.0000000000e+00 -7.2286897108e+02 7.2286897108e+02 0.0000000000e+00 0.0000e+00 -1.0000e+00
      -13  1    1    2    0    0 -7.0306273093e+00 -6.3526081829e+02 -1.5273516326e+02 6.5340168891e+02 0.0000000000e+00 0.0000e+00 -1.0000e+00
       13  1    1    2    0    0 +7.0306273093e+00 +6.3526081829e+02 -4.2869043046e+00 6.3531418568e+02 0.0000000000e+00 0.0000e+00 1.0000e+00
<mgrwt>
<rscale>  0 0.12791140E+04</rscale>
<asrwt>0</asrwt>
<pdfrwt beam="1">  1        2 0.87053369E-01 0.12791140E+04</pdfrwt>
<pdfrwt beam="2">  1       -2 0.11121061E+00 0.12791140E+04</pdfrwt>
<totfact> 0.40973644E+01</totfact>
</mgrwt>
<rwgt>
<wgt id='morphing_basis_vector_1'> +3.2071802e-04 </wgt>
<wgt id='morphing_basis_vector_2'> +2.2410575e-04 </wgt>
<wgt id='morphing_basis_vector_3'> +3.2634282e-04 </wgt>
<wgt id='morphing_basis_vector_4'> +1.9514222e-04 </wgt>
<wgt id='morphing_basis_vector_5'> +3.2989314e-04 </wgt>
</rwgt>
</event>
<event>
 4      1 +7.8865000e-07 1.17874900e+03 7.81860800e-03 8.53055300e-02
        2 -1    0    0  501    0 +0.0000000000e+00 +0.0000000000e+00 +1.8333836840e+03 1.8333836840e+03 0.0000000000e+00 0.0000e+00 -1.0000e+00
       -2 -1    0    0    0  501 -0.0000000000e+00 -0.0000000000e+00 -1.8946499168e+02 1.8946499168e+02 0.0000000000e+00 0.0000e+00 1.0000e+00
      -13  1    1    2    0    0 +5.1935806571e+02 +7.1762874056e+00 +3.4397821713e+02 6.2298098958e+02 0.0000000000e+00 0.0000e+00 1.0000e+00
       13  1    1    2    0    0 -5.1935806571e+02 -7.1762874056e+00 +1.2999404752e+03 1.3998676861e+03 0.0000000000e+00 0.0000e+00 -1.0000e+00
<mgrwt>
<rscale>  0 0.11787485E+04</rscale>
<asrwt>0</asrwt>
<pdfrwt beam="1">  1        2 0.28205902E+00 0.11787485E+04</pdfrwt>
<pdfrwt beam="2">  1       -2 0.29148462E-01 0.11787485E+04</pdfrwt>
<totfact> 0.10635391E+02</totfact>
</mgrwt>
<rwgt>
<wgt id='morphing_basis_vector_1'> +2.3098812e-04 </wgt>
<wgt id='morphing_basis_vector_2'> +1.5029717e-04 </wgt>
<wgt id='morphing_basis_vector_3'> +2.3077876e-04 </wgt>
<wgt id='morphing_basis_vector_4'> +1.4563138e-04 </wgt>
<wgt id='morphing_basis_vector_5'> +2.3415924e-04 </wgt>
</rwgt>
</event>
<event>
 4      1 +7.8865000e-07 1.20760800e+03 7.81860800e-03 8.50838600e-02
        2 -1    0    0  501    0 +0.0000000000e+00 +0.0000000000e+00 +3.3580155409e+02 3.3580155409e+02 0.0000000000e+00 0.0000e+00 -1.0000e+00
       -2 -1    0    0    0  501 -0.0000000000e+00 -0.0000000000e+00 -1.0856980249e+03 1.0856980249e+03 0.0000000000e+00 0.0000e+00 1.0000e+00
      -13  1    1    2    0    0 -1.8855841389e+02 +4.5269515017e+02 -7.8960867031e+02 9.2949934194e+02 0.0000000000e+00 0.0000e+00 1.0000e+00
       13  1    1    2    0    0 +1.8855841389e+02 -4.5269515017e+02 +3.9712199527e+01 4.9200023702e+02 0.0000000000e+00 0.0000e+00 -1.0000e+00
<mgrwt>
<rscale>  0 0.12076077E+04</rscale>
<asrwt>0</asrwt>
<pdfrwt beam="1">  1        2 0.51661779E-01 0.12076077E+04</pdfrwt>
<pdfrwt beam="2">  1       -2 0.16703046E+00 0.12076077E+04</pdfrwt>
<totfact> 0.24384412E+01</totfact>
</mgrwt>
<rwgt>
<wgt id='morphing_basis_vector_1'> +2.5252735e-04 </wgt>
<wgt id='morphing_basis_vector_2'> +1.6338491e-04 </wgt>
<wgt id='morphing_basis_vector_3'> +2.5341411e-04 </wgt>
<wgt id='morphing_basis_vector_4'> +1.6228635e-04 </wgt>
<wgt id='morphing_basis_vector_5'> +2.5948475e-04 </wgt>
</rwgt>
</event>
<event>
 4      1 +7.8865000e-07 1.21451900e+03 7.81860800e-03 8.50317400e-02
        2 -1    0    0  501    0 +0.0000000000e+00 +0.0000000000e+00 +3.0151768107e+03 3.0151768107e+03 0.0000000000e+00 0.0000e+00 1.0000e+00
       -2 -1    0    0    0  501 -0.0000000000e+00 -0.0000000000e+00 -1.2230256980e+02 1.2230256980e+02 0.0000000000e+00 0.0000e+00 -1.0000e+00
      -13  1    1    2    0    0 -5.3859923791e+02 -2.6719202529e+02 +1.2259737340e+03 1.3654641387e+03 0.0000000000e+00 0.0000e+00 -1.0000e+00
       13  1    1    2    0    0 +5.3859923791e+02 +2.6719202529e+02 +1.6669005069e+03 1.7720152419e+03 0.0000000000e+00 0.0000e+00 1.0000e+00
<mgrwt>
<rscale>  0 0.12145186E+04</rscale>
<asrwt>0</asrwt>
<pdfrwt beam="1">  1        2 0.46387330E+00 0.12145186E+04</pdfrwt>
<pdfrwt beam="2">  1       -2 0.18815782E-01 0.12145186E+04</pdfrwt>
<totfact> 0.45002215E+01</totfact>
</mgrwt>
<rwgt>
<wgt id='morphing_basis_vector_1'> +2.6284468e-04 </wgt>
<wgt id='morphing_basis_vector_2'> +1.8147233e-04 </wgt>
<wgt id='morphing_basis_vector_3'> +2.6471542e-04 </wgt>
<wgt id='morphing_basis_vector_4'> +1.5795436e-04 </wgt>
<wgt id='morphing_basis_vector_5'> +2.6525580e-04 </wgt>
</rwgt>
</event>
<event>
 4      1 +7.8865000e-07 1.14169900e+03 7.81860800e-03 8.56001100e-02
        2 -1    0    0  501    0 +0.0000000000e+00 +0.0000000000e+00 +3.2101740091e+03 3.2101740091e+03 0.0000000000e+00 0.0000e+00 1.0000e+00
       -2 -1    0    0    0  501 -0.0000000000e+00 -0.0000000000e+00 -1.0151140807e+02 1.0151140807e+02 0.0000000000e+00 0.0000e+00 -1.0000e+00
      -13  1    1    2    0    0 -3.3524903530e+02 -3.7238513646e+02 +7.6097632026e+02 9.1112434142e+02 0.0000000000e+00 0.0000e+00 -1.0000e+00
       13  1    1    2    0    0 +3.3524903530e+02 +3.7238513646e+02 +2.3476862808e+03 2.4005610758e+03 0.0000000000e+00 0.0000e+00 1.0000e+00
<mgrwt>
<rscale>  0 0.11416992E+04</rscale>
<asrwt>0</asrwt>
<pdfrwt beam="1">  1        2 0.49387285E+00 0.11416992E+04</pdfrwt>
<pdfrwt beam="2">  1       -2 0.15617142E-01 0.11416992E+04</pdfrwt>
<totfact> 0.45852975E+01</totfact>
</mgrwt>
<rwgt>
<wgt id='morphing_basis_vector_1'> +2.0475832e-04 </wgt>
<wgt id='morphing_basis_vector_2'> +1.3265795e-04 </wgt>
<wgt id='morphing_basis_vector_3'> +2.0323558e-04 </wgt>
<wgt id='morphing_basis_vector_4'> +1.2727136e-04 </wgt>
<wgt id='morphing_basis_vector_5'> +2.0444822e-04 </wgt>
</rwgt>
</event>
<event>
 4      1 +7.8865000e-07 1.08133800e+03 7.81860800e-03 8.61059600e-02
        2 -1    0    0  501    0 +0.0000000000e+00 +0.0000000000e+00 +1.4112697156e+03 1.4112697156e+03 0.0000000000e+00 0.0000e+00 -1.0000e+00
       -2 -1    0    0    0  501 -0.0000000000e+00 -0.0000000000e+00 -2.0713482177e+02 2.0713482177e+02 0.0000000000e+00 0.0000e+00 1.0000e+00
      -13  1    1    2    0    0 +4.4651752630e+02 -6.6524301621e+01 +1.5677479195e+02 4.7789299994e+02 0.0000000000e+00 0.0000e+00 1.0000e+00
       13  1    1    2    0    0 -4.4651752630e+02 +6.6524301621e+01 +1.0473601019e+03 1.1405115375e+03 0.0000000000e+00 0.0000e+00 -1.0000e+00
<mgrwt>
<rscale>  0 0.10813382E+04</rscale>
<asrwt>0</asrwt>
<pdfrwt beam="1">  1        2 0.21711841E+00 0.10813382E+04</pdfrwt>
<pdfrwt beam="2">  1       -2 0.31866897E-01 0.10813382E+04</pdfrwt>
<totfact> 0.15691799E+02</totfact>
</mgrwt>
<rwgt>
<wgt id='morphing_basis_vector_1'> +1.6676965e-04 </wgt>
<wgt id='morphing_basis_vector_2'> +1.0670998e-04 </wgt>
<wgt id='morphing_basis_vector_3'> +1.6354746e-04 </wgt>
<wgt id='morphing_basis_vector_4'> +1.0142618e-04 </wgt>
<wgt id='morphing_basis_vector_5'> +1.6212247e-04 </wgt>
</rwgt>
</event>
<event>
 4      1 +7.8865000e-07 1.09479600e+03 7.81860800e-03 8.59902700e-02
        2 -1    0    0  501    0 +0.0000000000e+00 +0.0000000000e+00 +9.9543989216e+02 9.9543989216e+02 0.0000000000e+00 0.0000e+00 1.0000e+00
       -2 -1    0    0    0  501 -0.0000000000e+00 -0.0000000000e+00 -3.0101744662e+02 3.0101744662e+02 0.0000000000e+00 0.0000e+00 -1.0000e+00
      -13  1    1    2    0    0 +7.0717578133e+01 +4.4683284738e+02 +7.1217568437e+02 8.4371486580e+02 0.0000000000e+00 0.0000e+00 1.0000e+00
       13  1    1    2    0    0 -7.0717578133e+01 -4.4683284738e+02 -1.7753238836e+01 4.5274247298e+02 0.0000000000e+00 0.0000e+00 -1.0000e+00
<mgrwt>
<rscale>  0 0.10947964E+04</rscale>
<asrwt>0</asrwt>
<pdfrwt beam="1">  1        2 0.15314460E+00 0.10947964E+04</pdfrwt>
<pdfrwt beam="2">  1       -2 0.46310377E-01 0.10947964E+04</pdfrwt>
<totfact> 0.13747439E+02</totfact>
</mgrwt>
<rwgt>
<wgt id='morphing_basis_vector_1'> +2.1124731e-04 </wgt>
<wgt id='morphing_basis_vector_2'> +2.2225319e-04 </wgt>
<wgt id='morphing_basis_vector_3'> +2.0971068e-04 </wgt>
<wgt id='morphing_basis_vector_4'> +4.7082709e-05 </wgt>
<wgt id='morphing_basis_vector_5'> +1.6711236e-04 </wgt>
</rwgt>
</event>
<event>
 4      1 +7.8865000e-07 1.21307400e+03 7.81860800e-03 8.50426100e-02
        2 -1    0    0  501    0 +0.0000000000e+00 +0.0000000000e+00 +7.0268187071e+02 7.0268187071e+02 0.0000000000e+00 0.0000e+00 -1.0000e+00
       -2 -1    0    0    0  501 -0.0000000000e+00 -0.0000000000e+00 -5.2354692430e+02 5.2354692430e+02 0.0000000000e+00 0.0000e+00 1.0000e+00
      -13  1    1    2    0    0 +2.3160281871e+02 +5.5353084055e+02 +2.5751112622e-03 6.0003021347e+02 0.0000000000e+00 0.0000e+00 1.0000e+00
       13  1    1    2    0    0 -2.3160281871e+02 -5.5353084055e+02 +1.7913237130e+02 6.2619858154e+02 0.0000000000e+00 0.0000e+00 -1.0000e+00
<mgrwt>
<rscale>  0 0.12130737E+04</rscale>
<asrwt>0</asrwt>
<pdfrwt beam="1">  1        2 0.10810490E+00 0.12130737E+04</pdfrwt>
<pdfrwt beam="2">  1       -2 0.80545681E-01 0.12130737E+04</pdfrwt>
<totfact> 0.68496781E+01</totfact>
</mgrwt>
<rwgt>
<wgt id='morphing_basis_vector_1'> +2.6154602e-04 </wgt>
<wgt id='morphing_basis_vector_2'> +1.8028641e-04 </wgt>
<wgt id='morphing_basis_vector_3'> +2.6332892e-04 </wgt>
<wgt id='morphing_basis_vector_4'> +1.5736450e-04 </wgt>
<wgt id='morphing_basis_vector_5'> +2.6393852e-04 </wgt>
</rwgt>
</event>
<event>
 4      1 +7.8865000e-07 1.12085200e+03 7.81860800e-03 8.57711000e-02
        2 -1    0    0  501    0 +0.0000000000e+00 +0.0000000000e+00 +3.7058661676e+02 3.7058661676e+02 0.0000000000e+00 0.0000e+00 1.0000e+00
       -2 -1    0    0    0  501 -0.0000000000e+00 -0.0000000000e+00 -8.4751379035e+02 8.4751379035e+02 0.0000000000e+00 0.0000e+00 -1.0000e+00
      -13  1    1    2    0    0 +3.0608695560e+02 +1.7601600889e+02 -7.1143204032e+02 7.9423322002e+02 0.0000000000e+00 0.0000e+00 -1.0000e+00
       13  1    1    2    0    0 -3.0608695560e+02 -1.7601600889e+02 +2.3450486674e+02 4.2386718710e+02 0.0000000000e+00 0.0000e+00 1.0000e+00
<mgrwt>
<rscale>  0 0.11208519E+04</rscale>
<asrwt>0</asrwt>
<pdfrwt beam="1">  1        2 0.57013326E-01 0.11208519E+04</pdfrwt>
<pdfrwt beam="2">  1       -2 0.13038674E+00 0.11208519E+04</pdfrwt>
<totfact> 0.44417009E+01</totfact>
</mgrwt>
<rwgt>
<wgt id='morphing_basis_vector_1'> +1.9024987e-04 </wgt>
<wgt id='morphing_basis_vector_2'> +1.2107337e-04 </wgt>
<wgt id='morphing_basis_vector_3'> +1.8803267e-04 </wgt>
<wgt id='morphing_basis_vector_4'> +1.1903165e-04 </wgt>
<wgt id='morphing_basis_vector_5'> +1.8908830e-04 </wgt>
</rwgt>
</event>
<event>
 4      1 +7.8865000e-07 1.11032800e+03 7.81860800e-03 8.58588800e-02
        2 -1    0    0  501    0 +0.0000000000e+00 +0.0000000000e+00 +2.0600408035e+03 2.0600408035e+03 0.0000000000e+00 0.0000e+00 1.0000e+00
       -2 -1    0    0    0  501 -0.0000000000e+00 -0.0000000000e+00 -1.4961198912e+02 1.4961198912e+02 0.0000000000e+00 0.0000e+00 -1.0000e+00
      -13  1    1    2    0    0 +1.5479148518e+02 +5.1767832002e+02 +1.2089455865e+03 1.3241981264e+03 0.0000000000e+00 0.0000e+00 1.0000e+00
       13  1    1    2    0    0 -1.5479148518e+02 -5.1767832002e+02 +7.0148322787e+02 8.8545466620e+02 0.0000000000e+00 0.0000e+00 -1.0000e+00
<mgrwt>
<rscale>  0 0.11103275E+04</rscale>
<asrwt>0</asrwt>
<pdfrwt beam="1">  1        2 0.31692933E+00 0.11103275E+04</pdfrwt>
<pdfrwt beam="2">  1       -2 0.23017231E-01 0.11103275E+04</pdfrwt>
<totfact> 0.12033198E+02</totfact>
</mgrwt>
<rwgt>
<wgt id='morphing_basis_vector_1'> +1.9811948e-04 </wgt>
<wgt id='morphing_basis_vector_2'> +1.6037697e-04 </wgt>
<wgt id='morphing_basis_vector_3'> +1.9637140e-04 </wgt>
<wgt id='morphing_basis_vector_4'> +9.0466696e-05 </wgt>
<wgt id='morphing_basis_vector_5'> +1.8007426e-04 </wgt>
</rwgt>
</event>
<event>
 4      1 +7.8865000e-07 1.07082600e+03 7.81860800e-03 8.61975300e-02
        2 -1    0    0  501    0 +0.0000000000e+00 +0.0000000000e+00 +4.5965830560e+02 4.5965830560e+02 0.0000000000e+00 0.0000e+00 -1.0000e+00
       -2 -1    0    0    0  501 -0.0000000000e+00 -0.0000000000e+00 -6.2365277851e+02 6.2365277851e+02 0.0000000000e+00 0.0000e+00 1.0000e+00
      -13  1    1    2    0    0 -1.3317036590e+02 -2.1868284584e+02 -5.5770367677e+02 6.1366923053e+02 0.0000000000e+00 0.0000e+00 1.0000e+00
       13  1    1    2    0    0 +1.3317036590e+02 +2.1868284584e+02 +3.9370920387e+02 4.6964185358e+02 0.0000000000e+00 0.0000e+00 -1.0000e+00
<mgrwt>
<rscale>  0 0.10708262E+04</rscale>
<asrwt>0</asrwt>
<pdfrwt beam="1">  1        2 0.70716663E-01 0.10708262E+04</pdfrwt>
<pdfrwt beam="2">  1       -2 0.95946581E-01 0.10708262E+04</pdfrwt>
<totfact> 0.75809313E+01</totfact>
</mgrwt>
<rwgt>
<wgt id='morphing_basis_vector_1'> +1.6029099e-04 </wgt>
<wgt id='morphing_basis_vector_2'> +1.0123265e-04 </wgt>
<wgt id='morphing_basis_vector_3'> +1.5682212e-04 </wgt>
<wgt id='morphing_basis_vector_4'> +9.8095054e-05 </wgt>
<wgt id='morphing_basis_vector_5'> +1.5551564e-04 </wgt>
</rwgt>
</event>
<event>
 4      1 +7.8865000e-07 1.14357200e+03 7.81860800e-03 8.55849400e-02
        2 -1    0    0  501    0 +0.0000000000e+00 +0.0000000000e+00 +4.7848244448e+02 4.7848244448e+02 0.0000000000e+00 0.0000e+00 -1.0000e+00
       -2 -1    0    0    0  501 -0.0000000000e+00 -0.0000000000e+00 -6.8328396949e+02 6.8328396949e+02 0.0000000000e+00 0.0000e+00 1.0000e+00
      -13  1    1    2    0    0 -3.3510441194e+00 -3.8492929890e+02 -5.3192477308e+02 6.5660167443e+02 0.0000000000e+00 0.0000e+00 1.0000e+00
       13  1    1    2    0    0 +3.3510441194e+00 +3.8492929890e+02 +3.2712324807e+02 5.0516473954e+02 0.0000000000e+00 0.0000e+00 -1.0000e+00
<mgrwt>
<rscale>  0 0.11435723E+04</rscale>
<asrwt>0</asrwt>
<pdfrwt beam="1">  1        2 0.73612684E-01 0.11435723E+04</pdfrwt>
<pdfrwt beam="2">  1       -2 0.10512061E+00 0.11435723E+04</pdfrwt>
<totfact> 0.57770112E+01</totfact>
</mgrwt>
<rwgt>
<wgt id='morphing_basis_vector_1'> +2.0520704e-04 </wgt>
<wgt id='morphing_basis_vector_2'> +1.3104242e-04 </wgt>
<wgt id='morphing_basis_vector_3'> +2.0367687e-04 </wgt>
<wgt id='morphing_basis_vector_4'> +1.2952961e-04 </wgt>
<wgt id='morphing_basis_vector_5'> +2.0597045e-04 </wgt>
</rwgt>
</event>
<event>
 4      1 +7.8865000e-07 1.07764100e+03 7.81860800e-03 8.61380500e-02
        2 -1    0    0  501    0 +0.0000000000e+00 +0.0000000000e+00 +2.0007324520e+03 2.0007324520e+03 0.0000000000e+00 0.0000e+00 -1.0000e+00
       -2 -1    0    0    0  501 -0.0000000000e+00 -0.0000000000e+00 -1.4511054354e+02 1.4511054354e+02 0.0000000000e+00 0.0000e+00 1.0000e+00
      -13  1    1    2    0    0 -1.7397912134e+02 -4.7788540560e+02 +5.7336895539e+02 7.6641708916e+02 0.0000000000e+00 0.0000e+00 1.0000e+00
       13  1    1    2    0    0 +1.7397912134e+02 +4.7788540560e+02 +1.2822529531e+03 1.3794259064e+03 0.0000000000e+00 0.0000e+00 -1.0000e+00
<mgrwt>
<rscale>  0 0.10776407E+04</rscale>
<asrwt>0</asrwt>
<pdfrwt beam="1">  1        2 0.30780497E+00 0.10776407E+04</pdfrwt>
<pdfrwt beam="2">  1       -2 0.22324700E-01 0.10776407E+04</pdfrwt>
<totfact> 0.13714990E+02</totfact>
</mgrwt>
<rwgt>
<wgt id='morphing_basis_vector_1'> +1.6571499e-04 </wgt>
<wgt id='morphing_basis_vector_2'> +1.0852216e-04 </wgt>
<wgt id='morphing_basis_vector_3'> +1.6242721e-04 </wgt>
<wgt id='morphing_basis_vector_4'> +9.8226022e-05 </wgt>
<wgt id='morphing_basis_vector_5'> +1.5964763e-04 </wgt>
</rwgt>
</event>
<event>
 4      1 +7.8865000e-07 1.21859300e+03 7.81860800e-03 8.50011900e-02
        2 -1    0    0  501    0 +0.0000000000e+00 +0.0000000000e+00 +3.1727806820e+03 3.1727806820e+03 0.0000000000e+00 0.0000e+00 -1.0000e+00
       -2 -1    0    0    0  501 -0.0000000000e+00 -0.0000000000e+00 -1.1700840980e+02 1.1700840980e+02 0.0000000000e+00 0.0000e+00 1.0000e+00
      -13  1    1    2    0    0 +5.4343098228e+02 -2.3031435475e+02 +1.1195307028e+03 1.2655871874e+03 0.0000000000e+00 0.0000e+00 1.0000e+00
       13  1    1    2    0    0 -5.4343098228e+02 +2.3031435475e+02 +1.9362415694e+03 2.0242019043e+03 0.0000000000e+00 0.0000e+00 -1.0000e+00
<mgrwt>
<rscale>  0 0.12185927E+04</rscale>
<asrwt>0</asrwt>
<pdfrwt beam="1">  1        2 0.48812004E+00 0.12185927E+04</pdfrwt>
<pdfrwt beam="2">  1       -2 0.18001296E-01 0.12185927E+04</pdfrwt>
<totfact> 0.38151997E+01</totfact>
</mgrwt>
<rwgt>
<wgt id='morphing_basis_vector_1'> +2.6426245e-04 </wgt>
<wgt id='morphing_basis_vector_2'> +1.7802959e-04 </wgt>
<wgt id='morphing_basis_vector_3'> +2.6605354e-04 </wgt>
<wgt id='morphing_basis_vector_4'> +1.6354729e-04 </wgt>
<wgt id='morphing_basis_vector_5'> +2.6926403e-04 </wgt>
</rwgt>
</event>
<event>
 4      1 +7.8865000e-07 1.17094400e+03 7.81860800e-03 8.53666200e-02
        2 -1    0    0  501    0 +0.0000000000e+00 +0.0000000000e+00 +2.0994016280e+03 2.0994016280e+03 0.0000000000e+00 0.0000e+00 -1.0000e+00
       -2 -1    0    0    0  501 -0.0000000000e+00 -0.0000000000e+00 -1.6327388001e+02 1.6327388001e+02 0.0000000000e+00 0.0000e+00 1.0000e+00
      -13  1    1    2    0    0 +1.9883126852e+02 -4.8445014194e+02 +4.6212847018e+02 6.9841859677e+02 0.0000000000e+00 0.0000e+00 1.0000e+00
       13  1    1    2    0    0 -1.9883126852e+02 +4.8445014194e+02 +1.4739992779e+03 1.5642569113e+03 0.0000000000e+00 0.0000e+00 -1.0000e+00
<mgrwt>
<rscale>  0 0.11709440E+04</rscale>
<asrwt>0</asrwt>
<pdfrwt beam="1">  1        2 0.32298485E+00 0.11709440E+04</pdfrwt>
<pdfrwt beam="2">  1       -2 0.25119060E-01 0.11709440E+04</pdfrwt>
<totfact> 0.97988012E+01</totfact>
</mgrwt>
<rwgt>
<wgt id='morphing_basis_vector_1'> +2.2542132e-04 </wgt>
<wgt id='morphing_basis_vector_2'> +1.4692545e-04 </wgt>
<wgt id='morphing_basis_vector_3'> +2.2493420e-04 </wgt>
<wgt id='morphing_basis_vector_4'> +1.4133845e-04 </wgt>
<wgt id='morphing_basis_vector_5'> +2.2763436e-04 </wgt>
</rwgt>
</event>
<event>
 4      1 +7.8865000e-07 1.14445900e+03 7.81860800e-03 8.55777600e-02
        2 -1    0    0  501    0 +0.0000000000e+00 +0.0000000000e+00 +1.6151408576e+03 1.6151408576e+03 0.0000000000e+00 0.0000e+00 1.0000e+00
       -2 -1    0    0    0  501 -0.0000000000e+00 -0.0000000000e+00 -2.0273552958e+02 2.0273552958e+02 0.0000000000e+00 0.0000e+00 -1.0000e+00
      -13  1    1    2    0    0 -2.4676924565e+02 -5.1623202035e+02 +7.1807629017e+02 9.1816344838e+02 0.0000000000e+00 0.0000e+00 -1.0000e+00
       13  1    1    2    0    0 +2.4676924565e+02 +5.1623202035e+02 +6.9432903780e+02 8.9971293876e+02 0.0000000000e+00 0.0000e+00 1.0000e+00
<mgrwt>
<rscale>  0 0.11444587E+04</rscale>
<asrwt>0</asrwt>
<pdfrwt beam="1">  1        2 0.24848320E+00 0.11444587E+04</pdfrwt>
<pdfrwt beam="2">  1       -2 0.31190083E-01 0.11444587E+04</pdfrwt>
<totfact> 0.12492490E+02</totfact>
</mgrwt>
<rwgt>
<wgt id='morphing_basis_vector_1'> +2.1338195e-04 </wgt>
<wgt id='morphing_basis_vector_2'> +1.5423824e-04 </wgt>
<wgt id='morphing_basis_vector_3'> +2.1252003e-04 </wgt>
<wgt id='morphing_basis_vector_4'> +1.1726008e-04 </wgt>
<wgt id='morphing_basis_vector_5'> +2.0581298e-04 </wgt>
</rwgt>
</event>
<event>
 4      1 +7.8865000e-07 1.14959300e+03 7.81860800e-03 8.55363700e-02
        2 -1    0    0  501    0 +0.0000000000e+00 +0.0000000000e+00 +7.6265120950e+02 7.6265120950e+02 0.0000000000e+00 0.0000e+00 -1.0000e+00
       -2 -1    0    0    0  501 -0.0000000000e+00 -0.0000000000e+00 -4.3321344723e+02 4.3321344723e+02 0.0000000000e+00 0.0000e+00 1.0000e+00
      -13  1    1    2    0    0 +2.1548417567e+02 +4.4555715879e+02 -1.3934085763e+02 5.1416970576e+02 0.0000000000e+00 0.0000e+00 1.0000e+00
       13  1    1    2    0    0 -2.1548417567e+02 -4.4555715879e+02 +4.6877861989e+02 6.8169495098e+02 0.0000000000e+00 0.0000e+00 -1.0000e+00
<mgrwt>
<rscale>  0 0.11495926E+04</rscale>
<asrwt>0</asrwt>
<pdfrwt beam="1">  1        2 0.11733096E+00 0.11495926E+04</pdfrwt>
<pdfrwt beam="2">  1       -2 0.66648223E-01 0.11495926E+04</pdfrwt>
<totfact> 0.93990285E+01</totfact>
</mgrwt>
<rwgt>
<wgt id='morphing_basis_vector_1'> +2.0999197e-04 </wgt>
<wgt id='morphing_basis_vector_2'> +1.3581623e-04 </wgt>
<wgt id='morphing_basis_vector_3'> +2.0871712e-04 </wgt>
<wgt id='morphing_basis_vector_4'> +1.3128813e-04 </wgt>
<wgt id='morphing_basis_vector_5'> +2.1054828e-04 </wgt>
</rwgt>
</event>
<event>
 4      1 +7.8865000e-07 1.08622600e+03 7.81860800e-03 8.60637400e-02
        2 -1    0    0  501    0 +0.0000000000e+00 +0.0000000000e+00 +1.2894235412e+03 1.2894235412e+03 0.0000000000e+00 0.0000e+00 -1.0000e+00
       -2 -1    0    0    0  501 -0.0000000000e+00 -0.0000000000e+00 -2.2876258691e+02 2.2876258691e+02 0.0000000000e+00 0.0000e+00 1.0000e+00
      -13  1    1    2    0    0 -1.7758192579e+02 -1.1165138038e+02 -1.6985977258e+02 2.6991427055e+02 0.0000000000e+00 0.0000e+00 1.0000e+00
       13  1    1    2    0    0 +1.7758192579e+02 +1.1165138038e+02 +1.2305207269e+03 1.2482718576e+03 0.0000000000e+00 0.0000e+00 -1.0000e+00
<mgrwt>
<rscale>  0 0.10862262E+04</rscale>
<asrwt>0</asrwt>
<pdfrwt beam="1">  1        2 0.19837285E+00 0.10862262E+04</pdfrwt>
<pdfrwt beam="2">  1       -2 0.35194245E-01 0.10862262E+04</pdfrwt>
<totfact> 0.15375633E+02</totfact>
</mgrwt>
<rwgt>
<wgt id='morphing_basis_vector_1'> +1.6905464e-04 </wgt>
<wgt id='morphing_basis_vector_2'> +1.0692786e-04 </wgt>
<wgt id='morphing_basis_vector_3'> +1.6593364e-04 </wgt>
<wgt id='morphing_basis_vector_4'> +1.0429357e-04 </wgt>
<wgt id='morphing_basis_vector_5'> +1.6534576e-04 </wgt>
</rwgt>
</event>
<event>
 4      1 +7.8865000e-07 1.23154500e+03 7.81860800e-03 8.49048900e-02
        2 -1    0    0  501    0 +0.0000000000e+00 +0.0000000000e+00 +2.9316909999e+02 2.9316909999e+02 0.0000000000e+00 0.0000e+00 -1.0000e+00
       -2 -1    0    0    0  501 -0.0000000000e+00 -0.0000000000e+00 -1.2933679462e+03 1.2933679462e+03 0.0000000000e+00 0.0000e+00 1.0000e+00
      -13  1    1    2    0    0 -2.9531908173e+02 -4.7820266255e+02 -8.2417649741e+02 9.9757608502e+02 0.0000000000e+00 0.0000e+00 1.0000e+00
       13  1    1    2    0    0 +2.9531908173e+02 +4.7820266255e+02 -1.7602234879e+02 5.8896096117e+02 0.0000000000e+00 0.0000e+00 -1.0000e+00
<mgrwt>
<rscale>  0 0.12315446E+04</rscale>
<asrwt>0</asrwt>
<pdfrwt beam="1">  1        2 0.45102938E-01 0.12315446E+04</pdfrwt>
<pdfrwt beam="2">  1       -2 0.19897968E+00 0.12315446E+04</pdfrwt>
<totfact> 0.16255506E+01</totfact>
</mgrwt>
<rwgt>
<wgt id='morphing_basis_vector_1'> +2.7316177e-04 </wgt>
<wgt id='morphing_basis_vector_2'> +1.7977810e-04 </wgt>
<wgt id='morphing_basis_vector_3'> +2.7529260e-04 </wgt>
<wgt id='morphing_basis_vector_4'> +1.7430408e-04 </wgt>
<wgt id='morphing_basis_vector_5'> +2.8178212e-04 </wgt>
</rwgt>
</event>
<event>
 4      1 +7.8865000e-07 1.18429200e+03 7.81860800e-03 8.52624400e-02
        2 -1    0    0  501    0 +0.0000000000e+00 +0.0000000000e+00 +1.1056669377e+03 1.1056669377e+03 0.0000000000e+00 0.0000e+00 -1.0000e+00
       -2 -1    0    0    0  501 -0.0000000000e+00 -0.0000000000e+00 -3.1712678112e+02 3.1712678112e+02 0.0000000000e+00 0.0000e+00 1.0000e+00
      -13  1    1    2    0    0 +5.0557202042e+01 +5.6737014545e+02 +5.8862661817e+02 8.1911306194e+02 0.0000000000e+00 0.0000e+00 1.0000e+00
       13  1    1    2    0    0 -5.0557202042e+01 -5.6737014545e+02 +1.9991353840e+02 6.0368065686e+02 0.0000000000e+00 0.0000e+00 -1.0000e+00
<mgrwt>
<rscale>  0 0.11842915E+04</rscale>
<asrwt>0</asrwt>
<pdfrwt beam="1">  1        2 0.17010260E+00 0.11842915E+04</pdfrwt>
<pdfrwt beam="2">  1       -2 0.48788736E-01 0.11842915E+04</pdfrwt>
<totfact> 0.10574126E+02</totfact>
</mgrwt>
<rwgt>
<wgt id='morphing_basis_vector_1'> +2.5545634e-04 </wgt>
<wgt id='morphing_basis_vector_2'> +2.1419305e-04 </wgt>
<wgt id='morphing_basis_vector_3'> +2.5787865e-04 </wgt>
<wgt id='morphing_basis_vector_4'> +1.1387092e-04 </wgt>
<wgt id='morphing_basis_vector_5'> +2.3652847e-04 </wgt>
</rwgt>
</event>
<event>
 4      1 +7.8865000e-07 1.13871400e+03 7.81860800e-03 8.56243600e-02
        2 -1    0    0  501    0 +0.0000000000e+00 +0.0000000000e+00 +1.0619173990e+03 1.0619173990e+03 0.0000000000e+00 0.0000e+00 -1.0000e+00
       -2 -1    0    0    0  501 -0.0000000000e+00 -0.0000000000e+00 -3.0526590953e+02 3.0526590953e+02 0.0000000000e+00 0.0000e+00 1.0000e+00
      -13  1    1    2    0    0 -3.9157693815e+02 +4.0334068627e+02 +4.8672266829e+02 7.4358265413e+02 0.0000000000e+00 0.0000e+00 1.0000e+00
       13  1    1    2    0    0 +3.9157693815e+02 -4.0334068627e+02 +2.6992882121e+02 6.2360065443e+02 0.0000000000e+00 0.0000e+00 -1.0000e+00
<mgrwt>
<rscale>  0 0.11387136E+04</rscale>
<asrwt>0</asrwt>
<pdfrwt beam="1">  1        2 0.16337191E+00 0.11387136E+04</pdfrwt>
<pdfrwt beam="2">  1       -2 0.46963986E-01 0.11387136E+04</pdfrwt>
<totfact> 0.12139912E+02</totfact>
</mgrwt>
<rwgt>
<wgt id='morphing_basis_vector_1'> +2.1442488e-04 </wgt>
<wgt id='morphing_basis_vector_2'> +1.6645813e-04 </wgt>
<wgt id='morphing_basis_vector_3'> +2.1373135e-04 </wgt>
<wgt id='morphing_basis_vector_4'> +1.0635387e-04 </wgt>
<wgt id='morphing_basis_vector_5'> +2.0089715e-04 </wgt>
</rwgt>
</event>
<event>
 4      1 +7.8865000e-07 1.17710700e+03 7.81860800e-03 8.53183300e-02
        2 -1    0    0  501    0 +0.0000000000e+00 +0.0000000000e+00 +1.0287996581e+03 1.0287996581e+03 0.0000000000e+00 0.0000e+00 -1.0000e+00
       -2 -1    0    0    0  501 -0.0000000000e+00 -0.0000000000e+00 -3.3669855988e+02 3.3669855988e+02 0.0000000000e+00 0.0000e+00 1.0000e+00
      -13  1    1    2    0    0 +2.9993860832e+02 -4.9616199976e+02 +2.2857356865e+02 6.2320604542e+02 0.0000000000e+00 0.0000e+00 1.0000e+00
       13  1    1    2    0    0 -2.9993860832e+02 +4.9616199976e+02 +4.6352752955e+02 7.4229217254e+02 0.0000000000e+00 0.0000e+00 -1.0000e+00
<mgrwt>
<rscale>  0 0.11771072E+04</rscale>
<asrwt>0</asrwt>
<pdfrwt beam="1">  1        2 0.15827687E+00 0.11771072E+04</pdfrwt>
<pdfrwt beam="2">  1       -2 0.51799779E-01 0.11771072E+04</pdfrwt>
<totfact> 0.10473423E+02</totfact>
</mgrwt>
<rwgt>
<wgt id='morphing_basis_vector_1'> +2.3294477e-04 </wgt>
<wgt id='morphing_basis_vector_2'> +1.5901080e-04 </wgt>
<wgt id='morphing_basis_vector_3'> +2.3303029e-04 </wgt>
<wgt id='morphing_basis_vector_4'> +1.3938990e-04 </wgt>
<wgt id='morphing_basis_vector_5'> +2.3241804e-04 </wgt>
</rwgt>
</event>
<event>
 4      1 +7.8865000e-07 1.16855600e+03 7.81860800e-03 8.53854100e-02
        2 -1    0    0  501    0 +0.0000000000e+00 +0.0000000000e+00 +1.5133818192e+03 1.5133818192e+03 0.0000000000e+00 0.0000e+00 -1.0000e+00
       -2 -1    0    0    0  501 -0.0000000000e+00 -0.0000000000e+00 -2.2557497813e+02 2.2557497813e+02 0.0000000000e+00 0.0000e+00 1.0000e+00
      -13  1    1    2    0    0 -1.2894752008e+02 +4.0472502572e+02 +4.6887007173e+01 4.2735020863e+02 0.0000000000e+00 0.0000e+00 1.0000e+00
       13  1    1    2    0    0 +1.2894752008e+02 -4.0472502572e+02 +1.2409198339e+03 1.3116065887e+03 0.0000000000e+00 0.0000e+00 -1.0000e+00
<mgrwt>
<rscale>  0 0.11685565E+04</rscale>
<asrwt>0</asrwt>
<pdfrwt beam="1">  1        2 0.23282797E+00 0.11685565E+04</pdfrwt>
<pdfrwt beam="2">  1       -2 0.34703844E-01 0.11685565E+04</pdfrwt>
<totfact> 0.11724469E+02</totfact>
</mgrwt>
<rwgt>
<wgt id='morphing_basis_vector_1'> +2.2272147e-04 </wgt>
<wgt id='morphing_basis_vector_2'> +1.4284548e-04 </wgt>
<wgt id='morphing_basis_vector_3'> +2.2204334e-04 </wgt>
<wgt id='morphing_basis_vector_4'> +1.4176770e-04 </wgt>
<wgt id='morphing_basis_vector_5'> +2.2578056e-04 </wgt>
</rwgt>
</event>
<event>
 4      1 +7.8865000e-07 1.24482100e+03 7.81860800e-03 8.48074600e-02
        2 -1    0    0  501    0 +0.0000000000e+00 +0.0000000000e+00 +8.8698663565e+02 8.8698663565e+02 0.0000000000e+00 0.0000e+00 1.0000e+00
       -2 -1    0    0    0  501 -0.0000000000e+00 -0.0000000000e+00 -4.3675374024e+02 4.3675374024e+02 0.0000000000e+00 0.0000e+00 -1.0000e+00
      -13  1    1    2    0    0 -5.6549173005e+02 -2.4995537269e+01 +5.0034779598e+02 7.5548235624e+02 0.0000000000e+00 0.0000e+00 1.0000e+00
       13  1    1    2    0    0 +5.6549173005e+02 +2.4995537269e+01 -5.0114900571e+01 5.6825801966e+02 0.0000000000e+00 0.0000e+00 -1.0000e+00
<mgrwt>
<rscale>  0 0.12448208E+04</rscale>
<asrwt>0</asrwt>
<pdfrwt beam="1">  1        2 0.13645948E+00 0.12448208E+04</pdfrwt>
<pdfrwt beam="2">  1       -2 0.67192883E-01 0.12448208E+04</pdfrwt>
<totfact> 0.75367996E+01</totfact>
</mgrwt>
<rwgt>
<wgt id='morphing_basis_vector_1'> +3.2311731e-04 </wgt>
<wgt id='morphing_basis_vector_2'> +3.0326433e-04 </wgt>
<wgt id='morphing_basis_vector_3'> +3.3229401e-04 </wgt>
<wgt id='morphing_basis_vector_4'> +1.1499303e-04 </wgt>
<wgt id='morphing_basis_vector_5'> +2.9016247e-04 </wgt>
</rwgt>
</event>
<event>
 4      1 +7.8865000e-07 1.17862100e+03 7.81860800e-03 8.53065200e-02
        2 -1    0    0  501    0 +0.0000000000e+00 +0.0000000000e+00 +1.1413548915e+03 1.1413548915e+03 0.0000000000e+00 0.0000e+00 -1.0000e+00
       -2 -1    0    0    0  501 -0.0000000000e+00 -0.0000000000e+00 -3.0427620789e+02 3.0427620789e+02 0.0000000000e+00 0.0000e+00 1.0000e+00
      -13  1    1    2    0    0 +2.0996426573e+02 +4.2844586656e+02 -5.7035710468e+00 4.7716180084e+02 0.0000000000e+00 0.0000e+00 1.0000e+00
       13  1    1    2    0    0 -2.0996426573e+02 -4.2844586656e+02 +8.4278225465e+02 9.6846929854e+02 0.0000000000e+00 0.0000e+00 -1.0000e+00
<mgrwt>
<rscale>  0 0.11786215E+04</rscale>
<asrwt>0</asrwt>
<pdfrwt beam="1">  1        2 0.17559306E+00 0.11786215E+04</pdfrwt>
<pdfrwt beam="2">  1       -2 0.46811725E-01 0.11786215E+04</pdfrwt>
<totfact> 0.10915154E+02</totfact>
</mgrwt>
<rwgt>
<wgt id='morphing_basis_vector_1'> +2.3035004e-04 </wgt>
<wgt id='morphing_basis_vector_2'> +1.4859865e-04 </wgt>
<wgt id='morphing_basis_vector_3'> +2.3007372e-04 </wgt>
<wgt id='morphing_basis_vector_4'> +1.4649047e-04 </wgt>
<wgt id='morphing_basis_vector_5'> +2.3411436e-04 </wgt>
</rwgt>
</event>
<event>
 4      1 +7.8865000e-07 1.11770800e+03 7.81860800e-03 8.57972200e-02
        2 -1    0    0  501    0 +0.0000000000e+00 +0.0000000000e+00 +7.7473235771e+02 7.7473235771e+02 0.0000000000e+00 0.0000e+00 -1.0000e+00
       -2 -1    0    0    0  501 -0.0000000000e+00 -0.0000000000e+00 -4.0312960378e+02 4.0312960378e+02 0.0000000000e+00 0.0000e+00 1.0000e+00
      -13  1    1    2    0    0 +7.1457286585e+01 +4.2285838401e+02 -1.9181639535e+02 4.6979664352e+02 0.0000000000e+00 0.0000e+00 1.0000e+00
       13  1    1    2    0    0 -7.1457286585e+01 -4.2285838401e+02 +5.6341914928e+02 7.0806531797e+02 0.0000000000e+00 0.0000e+00 -1.0000e+00
<mgrwt>
<rscale>  0 0.11177076E+04</rscale>
<asrwt>0</asrwt>
<pdfrwt beam="1">  1        2 0.11918959E+00 0.11177076E+04</pdfrwt>
<pdfrwt beam="2">  1       -2 0.62019939E-01 0.11177076E+04</pdfrwt>
<totfact> 0.10731240E+02</totfact>
</mgrwt>
<rwgt>
<wgt id='morphing_basis_vector_1'> +1.8849281e-04 </wgt>
<wgt id='morphing_basis_vector_2'> +1.2047919e-04 </wgt>
<wgt id='morphing_basis_vector_3'> +1.8620118e-04 </wgt>
<wgt id='morphing_basis_vector_4'> +1.1722399e-04 </wgt>
<wgt id='morphing_basis_vector_5'> +1.8680830e-04 </wgt>
</rwgt>
</event>
<event>
 4      1 +7.8865000e-07 1.15639600e+03 7.81860800e-03 8.54818600e-02
        2 -1    0    0  501    0 +0.0000000000e+00 +0.0000000000e+00 +1.6418071821e+03 1.6418071821e+03 0.0000000000e+00 0.0000e+00 -1.0000e+00
       -2 -1    0    0    0  501 -0.0000000000e+00 -0.0000000000e+00 -2.0362512704e+02 2.0362512704e+02 0.0000000000e+00 0.0000e+00 1.0000e+00
      -13  1    1    2    0    0 -3.6881752616e+02 +6.7043905888e+01 +1.6570169505e+01 3.7522769546e+02 0.0000000000e+00 0.0000e+00 1.0000e+00
       13  1    1    2    0    0 +3.6881752616e+02 -6.7043905888e+01 +1.4216118856e+03 1.4702046137e+03 0.0000000000e+00 0.0000e+00 -1.0000e+00
<mgrwt>
<rscale>  0 0.11563965E+04</rscale>
<asrwt>0</asrwt>
<pdfrwt beam="1">  1        2 0.25258571E+00 0.11563965E+04</pdfrwt>
<pdfrwt beam="2">  1       -2 0.31326944E-01 0.11563965E+04</pdfrwt>
<totfact> 0.11969872E+02</totfact>
</mgrwt>
<rwgt>
<wgt id='morphing_basis_vector_1'> +2.1397206e-04 </wgt>
<wgt id='morphing_basis_vector_2'> +1.3674022e-04 </wgt>
<wgt id='morphing_basis_vector_3'> +2.1285824e-04 </wgt>
<wgt id='morphing_basis_vector_4'> +1.3585784e-04 </wgt>
<wgt id='morphing_basis_vector_5'> +2.1598162e-04 </wgt>
</rwgt>
</event>
<event>
 4      1 +7.8865000e-07 1.17917900e+03 7.81860800e-03 8.53021700e-02
        2 -1    0    0  501    0 +0.0000000000e+00 +0.0000000000e+00 +4.9366014878e+02 4.9366014878e+02 0.0000000000e+00 0.0000e+00 1.0000e+00
       -2 -1    0    0    0  501 -0.0000000000e+00 -0.0000000000e+00 -7.0416037339e+02 7.0416037339e+02 0.0000000000e+00 0.0000e+00 -1.0000e+00
      -13  1    1    2    0    0 +1.5859399820e+02 -1.0302952292e+01 +4.7149106229e+02 4.9755605605e+02 0.0000000000e+00 0.0000e+00 1.0000e+00
       13  1    1    2    0    0 -1.5859399820e+02 +1.0302952292e+01 -6.8199128690e+02 7.0026446611e+02 0.0000000000e+00 0.0000e+00 -1.0000e+00
<mgrwt>
<rscale>  0 0.11791792E+04</rscale>
<asrwt>0</asrwt>
<pdfrwt beam="1">  1        2 0.75947715E-01 0.11791792E+04</pdfrwt>
<pdfrwt beam="2">  1       -2 0.10833237E+00 0.11791792E+04</pdfrwt>
<totfact> 0.51601984E+01</totfact>
</mgrwt>
<rwgt>
<wgt id='morphing_basis_vector_1'> +3.1453061e-04 </wgt>
<wgt id='morphing_basis_vector_2'> +4.0068322e-04 </wgt>
<wgt id='morphing_basis_vector_3'> +3.2387366e-04 </wgt>
<wgt id='morphing_basis_vector_4'> +4.2651768e-06 </wgt>
<wgt id='morphing_basis_vector_5'> +2.2501105e-04 </wgt>
</rwgt>
</event>
<event>
 4      1 +7.8865000e-07 1.26671100e+03 7.81860800e-03 8.46495700e-02
        2 -1    0    0  501    0 +0.0000000000e+00 +0.0000000000e+00 +1.0662065239e+03 1.0662065239e+03 0.0000000000e+00 0.0000e+00 1.0000e+00
       -2 -1    0    0    0  501 -0.0000000000e+00 -0.0000000000e+00 -3.7623008363e+02 3.7623008363e+02 0.0000000000e+00 0.0000e+00 -1.0000e+00
      -13  1    1    2    0    0 +3.1744872628e+02 -5.4646307870e+02 +2.9744207891e+02 6.9847503929e+02 0.0000000000e+00 0.0000e+00 -1.0000e+00
       13  1    1    2    0    0 -3.1744872628e+02 +5.4646307870e+02 +3.9253436138e+02 7.4396156827e+02 0.0000000000e+00 0.0000e+00 1.0000e+00
<mgrwt>
<rscale>  0 0.12667107E+04</rscale>
<asrwt>0</asrwt>
<pdfrwt beam="1">  1        2 0.16403177E+00 0.12667107E+04</pdfrwt>
<pdfrwt beam="2">  1       -2 0.57881552E-01 0.12667107E+04</pdfrwt>
<totfact> 0.78990926E+01</totfact>
</mgrwt>
<rwgt>
<wgt id='morphing_basis_vector_1'> +3.1048508e-04 </wgt>
<wgt id='morphing_basis_vector_2'> +2.2008816e-04 </wgt>
<wgt id='morphing_basis_vector_3'> +3.1559764e-04 </wgt>
<wgt id='morphing_basis_vector_4'> +1.8479272e-04 </wgt>
<wgt id='morphing_basis_vector_5'> +3.1647586e-04 </wgt>
</rwgt>
</event>
<event>
 4      1 +7.8865000e-07 1.20149100e+03 7.81860800e-03 8.51303000e-02
        2 -1    0    0  501    0 +0.0000000000e+00 +0.0000000000e+00 +4.0690138047e+02 4.0690138047e+02 0.0000000000e+00 0.0000e+00 -1.0000e+00
       -2 -1    0    0    0  501 -0.0000000000e+00 -0.0000000000e+00 -8.8693466134e+02 8.8693466134e+02 0.0000000000e+00 0.0000e+00 1.0000e+00
      -13  1    1    2    0    0 -3.5818082493e+02 -3.0975240372e+02 -6.3809762375e+02 7.9461225286e+02 0.0000000000e+00 0.0000e+00 1.0000e+00
       13  1    1    2    0    0 +3.5818082493e+02 +3.0975240372e+02 +1.5806434288e+02 4.9922378895e+02 0.0000000000e+00 0.0000e+00 -1.0000e+00
<mgrwt>
<rscale>  0 0.12014906E+04</rscale>
<asrwt>0</asrwt>
<pdfrwt beam="1">  1        2 0.62600213E-01 0.12014906E+04</pdfrwt>
<pdfrwt beam="2">  1       -2 0.13645148E+00 0.12014906E+04</pdfrwt>
<totfact> 0.35099022E+01</totfact>
</mgrwt>
<rwgt>
<wgt id='morphing_basis_vector_1'> +2.4759783e-04 </wgt>
<wgt id='morphing_basis_vector_2'> +1.5981789e-04 </wgt>
<wgt id='morphing_basis_vector_3'> +2.4821155e-04 </wgt>
<wgt id='morphing_basis_vector_4'> +1.5905749e-04 </wgt>
<wgt id='morphing_basis_vector_5'> +2.5398394e-04 </wgt>
</rwgt>
</event>
<event>
 4      1 +7.8865000e-07 1.14884500e+03 7.81860800e-03 8.55423800e-02
        2 -1    0    0  501    0 +0.0000000000e+00 +0.0000000000e+00 +1.6111100954e+02 1.6111100954e+02 0.0000000000e+00 0.0000e+00 -1.0000e+00
       -2 -1    0    0    0  501 -0.0000000000e+00 -0.0000000000e+00 -2.0480365428e+03 2.0480365428e+03 0.0000000000e+00 0.0000e+00 1.0000e+00
      -13  1    1    2    0    0 -2.9255572964e+02 +2.8031848239e+02 -1.7264371966e+03 1.7733450595e+03 0.0000000000e+00 0.0000e+00 1.0000e+00
       13  1    1    2    0    0 +2.9255572964e+02 -2.8031848239e+02 -1.6048833672e+02 4.3580249281e+02 0.0000000000e+00 0.0000e+00 -1.0000e+00
<mgrwt>
<rscale>  0 0.11488450E+04</rscale>
<asrwt>0</asrwt>
<pdfrwt beam="1">  1        2 0.24786310E-01 0.11488450E+04</pdfrwt>
<pdfrwt beam="2">  1       -2 0.31508254E+00 0.11488450E+04</pdfrwt>
<totfact> 0.51395894E+00</totfact>
</mgrwt>
<rwgt>
<wgt id='morphing_basis_vector_1'> +2.0884546e-04 </wgt>
<wgt id='morphing_basis_vector_2'> +1.3356914e-04 </wgt>
<wgt id='morphing_basis_vector_3'> +2.0748967e-04 </wgt>
<wgt id='morphing_basis_vector_4'> +1.3198942e-04 </wgt>
<wgt id='morphing_basis_vector_5'> +2.1003675e-04 </wgt>
</rwgt>
</event>
<event>
 4      1 +7.8865000e-07 1.14200500e+03 7.81860800e-03 8.55976300e-02
        2 -1    0    0  501    0 +0.0000000000e+00 +0.0000000000e+00 +3.7584232007e+02 3.7584232007e+02 0.0000000000e+00 0.0000e+00 -1.0000e+00
       -2 -1    0    0    0  501 -0.0000000000e+00 -0.0000000000e+00 -8.6750119205e+02 8.6750119205e+02 0.0000000000e+00 0.0000e+00 1.0000e+00
      -13  1    1    2    0    0 -2.0438092886e+02 -3.6328200703e+02 -6.7071380657e+02 7.8968499482e+02 0.0000000000e+00 0.0000e+00 1.0000e+00
       13  1    1    2    0    0 +2.0438092886e+02 +3.6328200703e+02 +1.7905493460e+02 4.5365851730e+02 0.0000000000e+00 0.0000e+00 -1.0000e+00
<mgrwt>
<rscale>  0 0.11420047E+04</rscale>
<asrwt>0</asrwt>
<pdfrwt beam="1">  1        2 0.57821896E-01 0.11420047E+04</pdfrwt>
<pdfrwt beam="2">  1       -2 0.13346172E+00 0.11420047E+04</pdfrwt>
<totfact> 0.40987106E+01</totfact>
</mgrwt>
<rwgt>
<wgt id='morphing_basis_vector_1'> +2.0425517e-04 </wgt>
<wgt id='morphing_basis_vector_2'> +1.3066070e-04 </wgt>
<wgt id='morphing_basis_vector_3'> +2.0268398e-04 </wgt>
<wgt id='morphing_basis_vector_4'> +1.2860322e-04 </wgt>
<wgt id='morphing_basis_vector_5'> +2.0475947e-04 </wgt>
</rwgt>
</event>
<event>
 4      1 +7.8865000e-07 1.10602300e+03 7.81860800e-03 8.58950700e-02
        2 -1    0    0  501    0 +0.0000000000e+00 +0.0000000000e+00 +2.2160518201e+03 2.2160518201e+03 0.0000000000e+00 0.0000e+00 -1.0000e+00
       -2 -1    0    0    0  501 -0.0000000000e+00 -0.0000000000e+00 -1.3800301819e+02 1.3800301819e+02 0.0000000000e+00 0.0000e+00 1.0000e+00
      -13  1    1    2    0    0 -5.0016220024e+02 +1.1581912750e+02 +6.0155993818e+02 7.9085438361e+02 0.0000000000e+00 0.0000e+00 1.0000e+00
       13  1    1    2    0    0 +5.0016220024e+02 -1.1581912750e+02 +1.4764888638e+03 1.5632004547e+03 0.0000000000e+00 0.0000e+00 -1.0000e+00
<mgrwt>
<rscale>  0 0.11060232E+04</rscale>
<asrwt>0</asrwt>
<pdfrwt beam="1">  1        2 0.34093102E+00 0.11060232E+04</pdfrwt>
<pdfrwt beam="2">  1       -2 0.21231235E-01 0.11060232E+04</pdfrwt>
<totfact> 0.11267501E+02</totfact>
</mgrwt>
<rwgt>
<wgt id='morphing_basis_vector_1'> +1.8234518e-04 </wgt>
<wgt id='morphing_basis_vector_2'> +1.1909476e-04 </wgt>
<wgt id='morphing_basis_vector_3'> +1.7978797e-04 </wgt>
<wgt id='morphing_basis_vector_4'> +1.1022864e-04 </wgt>
<wgt id='morphing_basis_vector_5'> +1.7848440e-04 </wgt>
</rwgt>
</event>
<event>
 4      1 +7.8865000e-07 1.19233100e+03 7.81860800e-03 8.52003800e-02
        2 -1    0    0  501    0 +0.0000000000e+00 +0.0000000000e+00 +4.3534638501e+02 4.3534638501e+02 0.0000000000e+00 0.0000e+00 1.0000e+00
       -2 -1    0    0    0  501 -0.0000000000e+00 -0.0000000000e+00 -8.1639179413e+02 8.1639179413e+02 0.0000000000e+00 0.0000e+00 -1.0000e+00
      -13  1    1    2    0    0 -3.7559705544e+02 -7.1969091138e+01 -6.7065019295e+02 7.7202615204e+02 0.0000000000e+00 0.0000e+00 -1.0000e+00
       13  1    1    2    0    0 +3.7559705544e+02 +7.1969091138e+01 +2.8960478382e+02 4.7971202710e+02 0.0000000000e+00 0.0000e+00 1.0000e+00
<mgrwt>
<rscale>  0 0.11923309E+04</rscale>
<asrwt>0</asrwt>
<pdfrwt beam="1">  1        2 0.66976368E-01 0.11923309E+04</pdfrwt>
<pdfrwt beam="2">  1       -2 0.12559874E+00 0.11923309E+04</pdfrwt>
<totfact> 0.40667469E+01</totfact>
</mgrwt>
<rwgt>
<wgt id='morphing_basis_vector_1'> +2.4015919e-04 </wgt>
<wgt id='morphing_basis_vector_2'> +1.5399986e-04 </wgt>
<wgt id='morphing_basis_vector_3'> +2.4035451e-04 </wgt>
<wgt id='morphing_basis_vector_4'> +1.5464357e-04 </wgt>
<wgt id='morphing_basis_vector_5'> +2.4593043e-04 </wgt>
</rwgt>
</event>
<event>
 4      1 +7.8865000e-07 1.22558400e+03 7.81860800e-03 8.49490500e-02
        2 -1    0    0  501    0 +0.0000000000e+00 +0.0000000000e+00 +5.4344288876e+02 5.4344288876e+02 0.0000000000e+00 0.0000e+00 -1.0000e+00
       -2 -1    0    0    0  501 -0.0000000000e+00 -0.0000000000e+00 -6.9099052406e+02 6.9099052406e+02 0.0000000000e+00 0.0000e+00 1.0000e+00
      -13  1    1    2    0    0 -1.7853706849e+01 +2.8534405389e+02 -6.1969667482e+02 6.8246901228e+02 0.0000000000e+00 0.0000e+00 1.0000e+00
       13  1    1    2    0    0 +1.7853706849e+01 -2.8534405389e+02 +4.7214903952e+02 5.5196440054e+02 0.0000000000e+00 0.0000e+00 -1.0000e+00
<mgrwt>
<rscale>  0 0.12255838E+04</rscale>
<asrwt>0</asrwt>
<pdfrwt beam="1">  1        2 0.83606598E-01 0.12255838E+04</pdfrwt>
<pdfrwt beam="2">  1       -2 0.10630623E+00 0.12255838E+04</pdfrwt>
<totfact> 0.48257599E+01</totfact>
</mgrwt>
<rwgt>
<wgt id='morphing_basis_vector_1'> +2.6637593e-04 </wgt>
<wgt id='morphing_basis_vector_2'> +1.7099296e-04 </wgt>
<wgt id='morphing_basis_vector_3'> +2.6795012e-04 </wgt>
<wgt id='morphing_basis_vector_4'> +1.7390849e-04 </wgt>
<wgt id='morphing_basis_vector_5'> +2.7628484e-04 </wgt>
</rwgt>
</event>
<event>
 4      1 +7.8865000e-07 1.23541100e+03 7.81860800e-03 8.48763800e-02
        2 -1    0    0  501    0 +0.0000000000e+00 +0.0000000000e+00 +3.2080869256e+02 3.2080869256e+02 0.0000000000e+00 0.0000e+00 -1.0000e+00
       -2 -1    0    0    0  501 -0.0000000000e+00 -0.0000000000e+00 -1.1893703512e+03 1.1893703512e+03 0.0000000000e+00 0.0000e+00 1.0000e+00
      -13  1    1    2    0    0 -2.5829506026e+02 +3.2367796711e+02 -9.9456151074e+02 1.0773283451e+03 0.0000000000e+00 0.0000e+00 1.0000e+00
       13  1    1    2    0    0 +2.5829506026e+02 -3.2367796711e+02 +1.2599985214e+02 4.3285069861e+02 0.0000000000e+00 0.0000e+00 -1.0000e+00
<mgrwt>
<rscale>  0 0.12354114E+04</rscale>
<asrwt>0</asrwt>
<pdfrwt beam="1">  1        2 0.49355183E-01 0.12354114E+04</pdfrwt>
<pdfrwt beam="2">  1       -2 0.18298006E+00 0.12354114E+04</pdfrwt>
<totfact> 0.19307237E+01</totfact>
</mgrwt>
<rwgt>
<wgt id='morphing_basis_vector_1'> +2.7476902e-04 </wgt>
<wgt id='morphing_basis_vector_2'> +1.7700343e-04 </wgt>
<wgt id='morphing_basis_vector_3'> +2.7682362e-04 </wgt>
<wgt id='morphing_basis_vector_4'> +1.7950637e-04 </wgt>
<wgt id='morphing_basis_vector_5'> +2.8573246e-04 </wgt>
</rwgt>
</event>
<event>
 4      1 +7.8865000e-07 1.09527200e+03 7.81860800e-03 8.59862200e-02
        2 -1    0    0  501    0 +0.0000000000e+00 +0.0000000000e+00 +2.0585279772e+02 2.0585279772e+02 0.0000000000e+00 0.0000e+00 1.0000e+00
       -2 -1    0    0    0  501 -0.0000000000e+00 -0.0000000000e+00 -1.4568907698e+03 1.4568907698e+03 0.0000000000e+00 0.0000e+00 -1.0000e+00
      -13  1    1    2    0    0 +3.1553555663e+02 +2.3577850610e+02 -1.2031013960e+03 1.2659412153e+03 0.0000000000e+00 0.0000e+00 -1.0000e+00
       13  1    1    2    0    0 -3.1553555663e+02 -2.3577850610e+02 -4.7936576082e+01 3.9680235227e+02 0.0000000000e+00 0.0000e+00 1.0000e+00
<mgrwt>
<rscale>  0 0.10952717E+04</rscale>
<asrwt>0</asrwt>
<pdfrwt beam="1">  1        2 0.31669660E-01 0.10952717E+04</pdfrwt>
<pdfrwt beam="2">  1       -2 0.22413705E+00 0.10952717E+04</pdfrwt>
<totfact> 0.16239945E+01</totfact>
</mgrwt>
<rwgt>
<wgt id='morphing_basis_vector_1'> +1.7459423e-04 </wgt>
<wgt id='morphing_basis_vector_2'> +1.1105880e-04 </wgt>
<wgt id='morphing_basis_vector_3'> +1.7170002e-04 </wgt>
<wgt id='morphing_basis_vector_4'> +1.0770049e-04 </wgt>
<wgt id='morphing_basis_vector_5'> +1.7130428e-04 </wgt>
</rwgt>
</event>
<event>
 4      1 +7.8865000e-07 1.20735400e+03 7.81860800e-03 8.50857800e-02
        2 -1    0    0  501    0 +0.0000000000e+00 +0.0000000000e+00 +1.4021544411e+03 1.4021544411e+03 0.0000000000e+00 0.0000e+00 1.0000e+00
       -2 -1    0    0    0  501 -0.0000000000e+00 -0.0000000000e+00 -2.5990423340e+02 2.5990423340e+02 0.0000000000e+00 0.0000e+00 -1.0000e+00
      -13  1    1    2    0    0 -5.4258628183e+02 -2.0709039571e+02 +7.9790953324e+02 9.8688698870e+02 0.0000000000e+00 0.0000e+00 -1.0000e+00
       13  1    1    2    0    0 +5.4258628183e+02 +2.0709039571e+02 +3.4434067447e+02 6.7517168581e+02 0.0000000000e+00 0.0000e+00 1.0000e+00
<mgrwt>
<rscale>  0 0.12073539E+04</rscale>
<asrwt>0</asrwt>
<pdfrwt beam="1">  1        2 0.21571606E+00 0.12073539E+04</pdfrwt>
<pdfrwt beam="2">  1       -2 0.39985267E-01 0.12073539E+04</pdfrwt>
<totfact> 0.10396547E+02</totfact>
</mgrwt>
<rwgt>
<wgt id='morphing_basis_vector_1'> +2.7477865e-04 </wgt>
<wgt id='morphing_basis_vector_2'> +2.3067922e-04 </wgt>
<wgt id='morphing_basis_vector_3'> +2.7873838e-04 </wgt>
<wgt id='morphing_basis_vector_4'> +1.2351160e-04 </wgt>
<wgt id='morphing_basis_vector_5'> +2.5662572e-04 </wgt>
</rwgt>
</event>
<event>
 4      1 +7.8865000e-07 1.08363900e+03 7.81860800e-03 8.60860600e-02
        2 -1    0    0  501    0 +0.0000000000e+00 +0.0000000000e+00 +4.5972508995e+02 4.5972508995e+02 0.0000000000e+00 0.0000e+00 1.0000e+00
       -2 -1    0    0    0  501 -0.0000000000e+00 -0.0000000000e+00 -6.3857399925e+02 6.3857399925e+02 0.0000000000e+00 0.0000e+00 -1.0000e+00
      -13  1    1    2    0    0 -4.7170280499e+02 -1.8501192601e+02 -2.8394677023e+02 5.8082589244e+02 0.0000000000e+00 0.0000e+00 -1.0000e+00
       13  1    1    2    0    0 +4.7170280499e+02 +1.8501192601e+02 +1.0509786093e+02 5.1747319677e+02 0.0000000000e+00 0.0000e+00 1.0000e+00
<mgrwt>
<rscale>  0 0.10836392E+04</rscale>
<asrwt>0</asrwt>
<pdfrwt beam="1">  1        2 0.70726937E-01 0.10836392E+04</pdfrwt>
<pdfrwt beam="2">  1       -2 0.98242153E-01 0.10836392E+04</pdfrwt>
<totfact> 0.71580098E+01</totfact>
</mgrwt>
<rwgt>
<wgt id='morphing_basis_vector_1'> +1.6902350e-04 </wgt>
<wgt id='morphing_basis_vector_2'> +1.1037763e-04 </wgt>
<wgt id='morphing_basis_vector_3'> +1.6587958e-04 </wgt>
<wgt id='morphing_basis_vector_4'> +1.0084862e-04 </wgt>
<wgt id='morphing_basis_vector_5'> +1.6351171e-04 </wgt>
</rwgt>
</event>
<event>
 4      1 +7.8865000e-07 1.12722900e+03 7.81860800e-03 8.57183800e-02
        2 -1    0    0  501    0 +0.0000000000e+00 +0.0000000000e+00 +7.5909147823e+02 7.5909147823e+02 0.0000000000e+00 0.0000e+00 1.0000e+00
       -2 -1    0    0    0  501 -0.0000000000e+00 -0.0000000000e+00 -4.1847564281e+02 4.1847564281e+02 0.0000000000e+00 0.0000e+00 -1.0000e+00
      -13  1    1    2    0    0 -1.8083887926e+02 +3.8498847437e+02 -2.1599254916e+02 4.7704465928e+02 0.0000000000e+00 0.0000e+00 -1.0000e+00
       13  1    1    2    0    0 +1.8083887926e+02 -3.8498847437e+02 +5.5660838458e+02 7.0052246177e+02 0.0000000000e+00 0.0000e+00 1.0000e+00
<mgrwt>
<rscale>  0 0.11272290E+04</rscale>
<asrwt>0</asrwt>
<pdfrwt beam="1">  1        2 0.11678330E+00 0.11272290E+04</pdfrwt>
<pdfrwt beam="2">  1       -2 0.64380868E-01 0.11272290E+04</pdfrwt>
<totfact> 0.10183064E+02</totfact>
</mgrwt>
<rwgt>
<wgt id='morphing_basis_vector_1'> +1.9455632e-04 </wgt>
<wgt id='morphing_basis_vector_2'> +1.2440030e-04 </wgt>
<wgt id='morphing_basis_vector_3'> +1.9253759e-04 </wgt>
<wgt id='morphing_basis_vector_4'> +1.2158728e-04 </wgt>
<wgt id='morphing_basis_vector_5'> +1.9369874e-04 </wgt>
</rwgt>
</event>
<event>
 4      1 +7.8865000e-07 1.26335700e+03 7.81860800e-03 8.46735400e-02
        2 -1    0    0  501    0 +0.0000000000e+00 +0.0000000000e+00 +7.6935621423e+02 7.6935621423e+02 0.0000000000e+00 0.0000e+00 -1.0000e+00
       -2 -1    0    0    0  501 -0.0000000000e+00 -0.0000000000e+00 -5.1863856516e+02 5.1863856516e+02 0.0000000000e+00 0.0000e+00 1.0000e+00
      -13  1    1    2    0    0 +2.1274673621e+02 -3.1096464102e+02 -3.9153722467e+02 5.4337977514e+02 0.0000000000e+00 0.0000e+00 1.0000e+00
       13  1    1    2    0    0 -2.1274673621e+02 +3.1096464102e+02 +6.4225487373e+02 7.4461500426e+02 0.0000000000e+00 0.0000e+00 -1.0000e+00
<mgrwt>
<rscale>  0 0.12633571E+04</rscale>
<asrwt>0</asrwt>
<pdfrwt beam="1">  1        2 0.11836250E+00 0.12633571E+04</pdfrwt>
<pdfrwt beam="2">  1       -2 0.79790548E-01 0.12633571E+04</pdfrwt>
<totfact> 0.62255373E+01</totfact>
</mgrwt>
<rwgt>
<wgt id='morphing_basis_vector_1'> +2.9902199e-04 </wgt>
<wgt id='morphing_basis_vector_2'> +1.9280274e-04 </wgt>
<wgt id='morphing_basis_vector_3'> +3.0243378e-04 </wgt>
<wgt id='morphing_basis_vector_4'> +1.9740433e-04 </wgt>
<wgt id='morphing_basis_vector_5'> +3.1398626e-04 </wgt>
</rwgt>
</event>
<event>
 4      1 +7.8865000e-07 1.15975000e+03 7.81860800e-03 8.54551400e-02
        2 -1    0    0  501    0 +0.0000000000e+00 +0.0000000000e+00 +6.6444133937e+02 6.6444133937e+02 0.0000000000e+00 0.0000e+00 1.0000e+00
       -2 -1    0    0    0  501 -0.0000000000e+00 -0.0000000000e+00 -5.0607137458e+02 5.0607137458e+02 0.0000000000e+00 0.0000e+00 -1.0000e+00
      -13  1    1    2    0    0 -3.0724132220e+02 -3.2833306924e+02 -2.9034807014e+02 5.3525866295e+02 0.0000000000e+00 0.0000e+00 -1.0000e+00
       13  1    1    2    0    0 +3.0724132220e+02 +3.2833306924e+02 +4.4871803494e+02 6.3525405099e+02 0.0000000000e+00 0.0000e+00 1.0000e+00
<mgrwt>
<rscale>  0 0.11597495E+04</rscale>
<asrwt>0</asrwt>
<pdfrwt beam="1">  1        2 0.10222175E+00 0.11597495E+04</pdfrwt>
<pdfrwt beam="2">  1       -2 0.77857134E-01 0.11597495E+04</pdfrwt>
<totfact> 0.79475991E+01</totfact>
</mgrwt>
<rwgt>
<wgt id='morphing_basis_vector_1'> +2.1659949e-04 </wgt>
<wgt id='morphing_basis_vector_2'> +1.3913040e-04 </wgt>
<wgt id='morphing_basis_vector_3'> +2.1562684e-04 </wgt>
<wgt id='morphing_basis_vector_4'> +1.3706149e-04 </wgt>
<wgt id='morphing_basis_vector_5'> +2.1862466e-04 </wgt>
</rwgt>
</event>
<event>
 4      1 +7.8865000e-07 1.16434600e+03 7.81860800e-03 8.54186600e-02
        2 -1    0    0  501    0 +0.0000000000e+00 +0.0000000000e+00 +1.4740807940e+03 1.4740807940e+03 0.0000000000e+00 0.0000e+00 1.0000e+00
       -2 -1    0    0    0  501 -0.0000000000e+00 -0.0000000000e+00 -2.2992339551e+02 2.2992339551e+02 0.0000000000e+00 0.0000e+00 -1.0000e+00
      -13  1    1    2    0    0 -9.3052133328e+01 -5.7417016112e+02 +6.5779458222e+02 8.7807960109e+02 0.0000000000e+00 0.0000e+00 -1.0000e+00
       13  1    1    2    0    0 +9.3052133328e+01 +5.7417016112e+02 +5.8636281624e+02 8.2592458839e+02 0.0000000000e+00 0.0000e+00 1.0000e+00
<mgrwt>
<rscale>  0 0.11643464E+04</rscale>
<asrwt>0</asrwt>
<pdfrwt beam="1">  1        2 0.22678166E+00 0.11643464E+04</pdfrwt>
<pdfrwt beam="2">  1       -2 0.35372831E-01 0.11643464E+04</pdfrwt>
<totfact> 0.11914915E+02</totfact>
</mgrwt>
<rwgt>
<wgt id='morphing_basis_vector_1'> +2.2859414e-04 </wgt>
<wgt id='morphing_basis_vector_2'> +1.6757356e-04 </wgt>
<wgt id='morphing_basis_vector_3'> +2.2867334e-04 </wgt>
<wgt id='morphing_basis_vector_4'> +1.2459893e-04 </wgt>
<wgt id='morphing_basis_vector_5'> +2.2134465e-04 </wgt>
</rwgt>
</event>
<event>
 4      1 +7.8865000e-07 1.19548000e+03 7.81860800e-03 8.51762100e-02
        2 -1    0    0  501    0 +0.0000000000e+00 +0.0000000000e+00 +6.6155680120e+02 6.6155680120e+02 0.0000000000e+00 0.0000e+00 -1.0000e+00
       -2 -1    0    0    0  501 -0.0000000000e+00 -0.0000000000e+00 -5.4007965411e+02 5.4007965411e+02 0.0000000000e+00 0.0000e+00 1.0000e+00
      -13  1    1    2    0    0 -4.7398131166e+02 -1.3346734782e+02 -2.7985961025e+02 5.6638610345e+02 0.0000000000e+00 0.0000e+00 1.0000e+00
       13  1    1    2    0    0 +4.7398131166e+02 +1.3346734782e+02 +4.0133675735e+02 6.3525035186e+02 0.0000000000e+00 0.0000e+00 -1.0000e+00
<mgrwt>
<rscale>  0 0.11954804E+04</rscale>
<asrwt>0</asrwt>
<pdfrwt beam="1">  1        2 0.10177797E+00 0.11954804E+04</pdfrwt>
<pdfrwt beam="2">  1       -2 0.83089177E-01 0.11954804E+04</pdfrwt>
<totfact> 0.68765104E+01</totfact>
</mgrwt>
<rwgt>
<wgt id='morphing_basis_vector_1'> +2.4313332e-04 </wgt>
<wgt id='morphing_basis_vector_2'> +1.5729235e-04 </wgt>
<wgt id='morphing_basis_vector_3'> +2.4352582e-04 </wgt>
<wgt id='morphing_basis_vector_4'> +1.5540499e-04 </wgt>
<wgt id='morphing_basis_vector_5'> +2.4862762e-04 </wgt>
</rwgt>
</event>
<event>
 4      1 +7.8865000e-07 1.18517800e+03 7.81860800e-03 8.52555700e-02
        2 -1    0    0  501    0 +0.0000000000e+00 +0.0000000000e+00 +6.5523799384e+02 6.5523799384e+02 0.0000000000e+00 0.0000e+00 1.0000e+00
       -2 -1    0    0    0  501 -0.0000000000e+00 -0.0000000000e+00 -5.3592994016e+02 5.3592994016e+02 0.0000000000e+00 0.0000e+00 -1.0000e+00
      -13  1    1    2    0    0 +2.9785153030e+02 +2.6354380163e+02 -3.8187345804e+02 5.5136032450e+02 0.0000000000e+00 0.0000e+00 -1.0000e+00
       13  1    1    2    0    0 -2.9785153030e+02 -2.6354380163e+02 +5.0118151172e+02 6.3980760950e+02 0.0000000000e+00 0.0000e+00 1.0000e+00
<mgrwt>
<rscale>  0 0.11851779E+04</rscale>
<asrwt>0</asrwt>
<pdfrwt beam="1">  1        2 0.10080585E+00 0.11851779E+04</pdfrwt>
<pdfrwt beam="2">  1       -2 0.82450760E-01 0.11851779E+04</pdfrwt>
<totfact> 0.70856476E+01</totfact>
</mgrwt>
<rwgt>
<wgt id='morphing_basis_vector_1'> +2.3480313e-04 </wgt>
<wgt id='morphing_basis_vector_2'> +1.5056580e-04 </wgt>
<wgt id='morphing_basis_vector_3'> +2.3472653e-04 </wgt>
<wgt id='morphing_basis_vector_4'> +1.5068844e-04 </wgt>
<wgt id='morphing_basis_vector_5'> +2.3973466e-04 </wgt>
</rwgt>
</event>
<event>
 4      1 +7.8865000e-07 1.10931700e+03 7.81860800e-03 8.58673600e-02
        2 -1    0    0  501    0 +0.0000000000e+00 +0.0000000000e+00 +1.3010982814e+03 1.3010982814e+03 0.0000000000e+00 0.0000e+00 -1.0000e+00
       -2 -1    0    0    0  501 -0.0000000000e+00 -0.0000000000e+00 -2.3645123797e+02 2.3645123797e+02 0.0000000000e+00 0.0000e+00 1.0000e+00
      -13  1    1    2    0    0 +5.4261006031e+02 +4.0029548565e+01 +3.8292587418e+02 6.6532718825e+02 0.0000000000e+00 0.0000e+00 -1.0000e+00
       13  1    1    2    0    0 -5.4261006031e+02 -4.0029548565e+01 +6.8172116924e+02 8.7222233112e+02 0.0000000000e+00 0.0000e+00 1.0000e+00
<mgrwt>
<rscale>  0 0.11093174E+04</rscale>
<asrwt>0</asrwt>
<pdfrwt beam="1">  1        2 0.20016896E+00 0.11093174E+04</pdfrwt>
<pdfrwt beam="2">  1       -2 0.36377114E-01 0.11093174E+04</pdfrwt>
<totfact> 0.14231500E+02</totfact>
</mgrwt>
<rwgt>
<wgt id='morphing_basis_vector_1'> +1.8605456e-04 </wgt>
<wgt id='morphing_basis_vector_2'> +1.2549231e-04 </wgt>
<wgt id='morphing_basis_vector_3'> +1.8367586e-04 </wgt>
<wgt id='morphing_basis_vector_4'> +1.0888833e-04 </wgt>
<wgt id='morphing_basis_vector_5'> +1.8059049e-04 </wgt>
</rwgt>
</event>
<event>
 4      1 +7.8865000e-07 1.08586600e+03 7.81860800e-03 8.60668500e-02
        2 -1    0    0  501    0 +0.0000000000e+00 +0.0000000000e+00 +6.5187716296e+02 6.5187716296e+02 0.0000000000e+00 0.0000e+00 1.0000e+00
       -2 -1    0    0    0  501 -0.0000000000e+00 -0.0000000000e+00 -4.5219582292e+02 4.5219582292e+02 0.0000000000e+00 0.0000e+00 -1.0000e+00
      -13  1    1    2    0    0 -1.0893721535e+02 +5.2554934312e+02 +1.8310828220e+02 5.6709617522e+02 0.0000000000e+00 0.0000e+00 -1.0000e+00
       13  1    1    2    0    0 +1.0893721535e+02 -5.2554934312e+02 +1.6573057845e+01 5.3697681066e+02 0.0000000000e+00 0.0000e+00 1.0000e+00
<mgrwt>
<rscale>  0 0.10858658E+04</rscale>
<asrwt>0</asrwt>
<pdfrwt beam="1">  1        2 0.10028879E+00 0.10858658E+04</pdfrwt>
<pdfrwt beam="2">  1       -2 0.69568589E-01 0.10858658E+04</pdfrwt>
<totfact> 0.10455828E+02</totfact>
</mgrwt>
<rwgt>
<wgt id='morphing_basis_vector_1'> +1.7912863e-04 </wgt>
<wgt id='morphing_basis_vector_2'> +1.3781178e-04 </wgt>
<wgt id='morphing_basis_vector_3'> +1.7628661e-04 </wgt>
<wgt id='morphing_basis_vector_4'> +8.7403969e-05 </wgt>
<wgt id='morphing_basis_vector_5'> +1.6404344e-04 </wgt>
</rwgt>
</event>
<event>
 4      1 +7.8865000e-07 1.25487800e+03 7.81860800e-03 8.47345000e-02
        2 -1    0    0  501    0 +0.0000000000e+00 +0.0000000000e+00 +8.8173608599e+02 8.8173608599e+02 0.0000000000e+00 0.0000e+00 1.0000e+00
       -2 -1    0    0    0  501 -0.0000000000e+00 -0.0000000000e+00 -4.4648248551e+02 4.4648248551e+02 0.0000000000e+00 0.0000e+00 -1.0000e+00
      -13  1    1    2    0    0 -4.2165444799e+02 +3.9015622911e+02 -4.9439838228e+01 5.7659227729e+02 0.0000000000e+00 0.0000e+00 -1.0000e+00
       13  1    1    2    0    0 +4.2165444799e+02 -3.9015622911e+02 +4.8469343871e+02 7.5162629421e+02 0.0000000000e+00 0.0000e+00 1.0000e+00
<mgrwt>
<rscale>  0 0.12548780E+04</rscale>
<asrwt>0</asrwt>
<pdfrwt beam="1">  1        2 0.13565171E+00 0.12548780E+04</pdfrwt>
<pdfrwt beam="2">  1       -2 0.68689613E-01 0.12548780E+04</pdfrwt>
<totfact> 0.72442133E+01</totfact>
</mgrwt>
<rwgt>
<wgt id='morphing_basis_vector_1'> +2.9340442e-04 </wgt>
<wgt id='morphing_basis_vector_2'> +1.9361902e-04 </wgt>
<wgt id='morphing_basis_vector_3'> +2.9671935e-04 </wgt>
<wgt id='morphing_basis_vector_4'> +1.8850223e-04 </wgt>
<wgt id='morphing_basis_vector_5'> +3.0497393e-04 </wgt>
</rwgt>
</event>
<event>
 4      1 +7.8865000e-07 1.12250700e+03 7.81860800e-03 8.57573800e-02
        2 -1    0    0  501    0 +0.0000000000e+00 +0.0000000000e+00 +1.0294600835e+03 1.0294600835e+03 0.0000000000e+00 0.0000e+00 1.0000e+00
       -2 -1    0    0    0  501 -0.0000000000e+00 -0.0000000000e+00 -3.0599088902e+02 3.0599088902e+02 0.0000000000e+00 0.0000e+00 -1.0000e+00
      -13  1    1    2    0    0 +1.1687925350e+02 +3.6993619437e+02 -1.2078077396e+02 4.0632689200e+02 0.0000000000e+00 0.0000e+00 -1.0000e+00
       13  1    1    2    0    0 -1.1687925350e+02 -3.6993619437e+02 +8.4424996846e+02 9.2912408054e+02 0.0000000000e+00 0.0000e+00 1.0000e+00
<mgrwt>
<rscale>  0 0.11225068E+04</rscale>
<asrwt>0</asrwt>
<pdfrwt beam="1">  1        2 0.15837847E+00 0.11225068E+04</pdfrwt>
<pdfrwt beam="2">  1       -2 0.47075522E-01 0.11225068E+04</pdfrwt>
<totfact> 0.12664121E+02</totfact>
</mgrwt>
<rwgt>
<wgt id='morphing_basis_vector_1'> +1.9138320e-04 </wgt>
<wgt id='morphing_basis_vector_2'> +1.2199927e-04 </wgt>
<wgt id='morphing_basis_vector_3'> +1.8921813e-04 </wgt>
<wgt id='morphing_basis_vector_4'> +1.1965332e-04 </wgt>
<wgt id='morphing_basis_vector_5'> +1.9027448e-04 </wgt>
</rwgt>
</event>
<event>
 4      1 +7.8865000e-07 1.14135600e+03 7.81860800e-03 8.56029000e-02
        2 -1    0    0  501    0 +0.0000000000e+00 +0.0000000000e+00 +1.5589413726e+03 1.5589413726e+03 0.0000000000e+00 0.0000e+00 1.0000e+00
       -2 -1    0    0    0  501 -0.0000000000e+00 -0.0000000000e+00 -2.0890659141e+02 2.0890659141e+02 0.0000000000e+00 0.0000e+00 -1.0000e+00
      -13  1    1    2    0    0 +2.5110893522e+01 -5.5351778833e+02 +4.6343130804e+02 7.2234415361e+02 0.0000000000e+00 0.0000e+00 -1.0000e+00
       13  1    1    2    0    0 -2.5110893522e+01 +5.5351778833e+02 +8.8660347313e+02 1.0455038104e+03 0.0000000000e+00 0.0000e+00 1.0000e+00
<mgrwt>
<rscale>  0 0.11413556E+04</rscale>
<asrwt>0</asrwt>
<pdfrwt beam="1">  1        2 0.23983713E+00 0.11413556E+04</pdfrwt>
<pdfrwt beam="2">  1       -2 0.32139477E-01 0.11413556E+04</pdfrwt>
<totfact> 0.12725846E+02</totfact>
</mgrwt>
<rwgt>
<wgt id='morphing_basis_vector_1'> +2.0647177e-04 </wgt>
<wgt id='morphing_basis_vector_2'> +1.3835833e-04 </wgt>
<wgt id='morphing_basis_vector_3'> +2.0509677e-04 </wgt>
<wgt id='morphing_basis_vector_4'> +1.2385362e-04 </wgt>
<wgt id='morphing_basis_vector_5'> +2.0397178e-04 </wgt>
</rwgt>
</event>
<event>
 4      1 +7.8865000e-07 1.17470100e+03 7.81860800e-03 8.53371500e-02
        2 -1    0    0  501    0 +0.0000000000e+00 +0.0000000000e+00 +3.9977774802e+02 3.9977774802e+02 0.0000000000e+00 0.0000e+00 -1.0000e+00
       -2 -1    0    0    0  501 -0.0000000000e+00 -0.0000000000e+00 -8.6293086568e+02 8.6293086568e+02 0.0000000000e+00 0.0000e+00 1.0000e+00
      -13  1    1    2    0    0 -1.9960130577e+02 +2.6665170267e+02 -7.5159394385e+02 8.2209322357e+02 0.0000000000e+00 0.0000e+00 1.0000e+00
       13  1    1    2    0    0 +1.9960130577e+02 -2.6665170267e+02 +2.8844082620e+02 4.4061539013e+02 0.0000000000e+00 0.0000e+00 -1.0000e+00
<mgrwt>
<rscale>  0 0.11747009E+04</rscale>
<asrwt>0</asrwt>
<pdfrwt beam="1">  1        2 0.61504269E-01 0.11747009E+04</pdfrwt>
<pdfrwt beam="2">  1       -2 0.13275860E+00 0.11747009E+04</pdfrwt>
<totfact> 0.38679771E+01</totfact>
</mgrwt>
<rwgt>
<wgt id='morphing_basis_vector_1'> +2.2694564e-04 </wgt>
<wgt id='morphing_basis_vector_2'> +1.4510653e-04 </wgt>
<wgt id='morphing_basis_vector_3'> +2.2646470e-04 </wgt>
<wgt id='morphing_basis_vector_4'> +1.4533315e-04 </wgt>
<wgt id='morphing_basis_vector_5'> +2.3088838e-04 </wgt>
</rwgt>
</event>
<event>
 4      1 +7.8865000e-07 1.24747100e+03 7.81860800e-03 8.47881600e-02
        2 -1    0    0  501    0 +0.0000000000e+00 +0.0000000000e+00 +6.4738136833e+02 6.4738136833e+02 0.0000000000e+00 0.0000e+00 1.0000e+00
       -2 -1    0    0    0  501 -0.0000000000e+00 -0.0000000000e+00 -6.0095352636e+02 6.0095352636e+02 0.0000000000e+00 0.0000e+00 -1.0000e+00
      -13  1    1    2    0    0 -5.2796898912e+02 +2.0170582362e+02 -2.4080509919e+02 6.1434810047e+02 0.0000000000e+00 0.0000e+00 -1.0000e+00
       13  1    1    2    0    0 +5.2796898912e+02 -2.0170582362e+02 +2.8723294116e+02 6.3398679422e+02 0.0000000000e+00 0.0000e+00 1.0000e+00
<mgrwt>
<rscale>  0 0.12474712E+04</rscale>
<asrwt>0</asrwt>
<pdfrwt beam="1">  1        2 0.99597133E-01 0.12474712E+04</pdfrwt>
<pdfrwt beam="2">  1       -2 0.92454389E-01 0.12474712E+04</pdfrwt>
<totfact> 0.54868001E+01</totfact>
</mgrwt>
<rwgt>
<wgt id='morphing_basis_vector_1'> +2.8668652e-04 </wgt>
<wgt id='morphing_basis_vector_2'> +1.8862426e-04 </wgt>
<wgt id='morphing_basis_vector_3'> +2.8958523e-04 </wgt>
<wgt id='morphing_basis_vector_4'> +1.8420702e-04 </wgt>
<wgt id='morphing_basis_vector_5'> +2.9748609e-04 </wgt>
</rwgt>
</event>
<event>
 4      1 +7.8865000e-07 1.26920300e+03 7.81860800e-03 8.46318000e-02
        2 -1    0    0  501    0 +0.0000000000e+00 +0.0000000000e+00 +4.8632589892e+02 4.8632589892e+02 0.0000000000e+00 0.0000e+00 -1.0000e+00
       -2 -1    0    0    0  501 -0.0000000000e+00 -0.0000000000e+00 -8.2808508752e+02 8.2808508752e+02 0.0000000000e+00 0.0000e+00 1.0000e+00
      -13  1    1    2    0    0 -8.8305116695e+01 +4.6083760821e+02 -6.1335697729e+02 7.7225376423e+02 0.0000000000e+00 0.0000e+00 1.0000e+00
       13  1    1    2    0    0 +8.8305116695e+01 -4.6083760821e+02 +2.7159778869e+02 5.4215722221e+02 0.0000000000e+00 0.0000e+00 -1.0000e+00
<mgrwt>
<rscale>  0 0.12692033E+04</rscale>
<asrwt>0</asrwt>
<pdfrwt beam="1">  1        2 0.74819369E-01 0.12692033E+04</pdfrwt>
<pdfrwt beam="2">  1       -2 0.12739771E+00 0.12692033E+04</pdfrwt>
<totfact> 0.34339410E+01</totfact>
</mgrwt>
<rwgt>
<wgt id='morphing_basis_vector_1'> +3.0463739e-04 </wgt>
<wgt id='morphing_basis_vector_2'> +1.9726311e-04 </wgt>
<wgt id='morphing_basis_vector_3'> +3.0841298e-04 </wgt>
<wgt id='morphing_basis_vector_4'> +2.0070836e-04 </wgt>
<wgt id='morphing_basis_vector_5'> +3.2010609e-04 </wgt>
</rwgt>
</event>
<event>
 4      1 +7.8865000e-07 1.14409400e+03 7.81860800e-03 8.55807100e-02
        2 -1    0    0  501    0 +0.0000000000e+00 +0.0000000000e+00 +4.3899912049e+02 4.3899912049e+02 0.0000000000e+00 0.0000e+00 -1.0000e+00
       -2 -1    0    0    0  501 -0.0000000000e+00 -0.0000000000e+00 -7.4541806782e+02 7.4541806782e+02 0.0000000000e+00 0.0000e+00 1.0000e+00
      -13  1    1    2    0    0 -1.0124471194e+02 +3.2021436043e+02 -6.3261837993e+02 7.1623581518e+02 0.0000000000e+00 0.0000e+00 1.0000e+00
       13  1    1    2    0    0 +1.0124471194e+02 -3.2021436043e+02 +3.2619943259e+02 4.6818137313e+02 0.0000000000e+00 0.0000e+00 -1.0000e+00
<mgrwt>
<rscale>  0 0.11440942E+04</rscale>
<asrwt>0</asrwt>
<pdfrwt beam="1">  1        2 0.67538327E-01 0.11440942E+04</pdfrwt>
<pdfrwt beam="2">  1       -2 0.11467970E+00 0.11440942E+04</pdfrwt>
<totfact> 0.51210910E+01</totfact>
</mgrwt>
<rwgt>
<wgt id='morphing_basis_vector_1'> +2.0546689e-04 </wgt>
<wgt id='morphing_basis_vector_2'> +1.3099561e-04 </wgt>
<wgt id='morphing_basis_vector_3'> +2.0394551e-04 </wgt>
<wgt id='morphing_basis_vector_4'> +1.2993598e-04 </wgt>
<wgt id='morphing_basis_vector_5'> +2.0638119e-04 </wgt>
</rwgt>
</event>
<event>
 4      1 +7.8865000e-07 1.25679900e+03 7.81860800e-03 8.47206400e-02
        2 -1    0    0  501    0 +0.0000000000e+00 +0.0000000000e+00 +1.3089037109e+03 1.3089037109e+03 0.0000000000e+00 0.0000e+00 1.0000e+00
       -2 -1    0    0    0  501 -0.0000000000e+00 -0.0000000000e+00 -3.0169196836e+02 3.0169196836e+02 0.0000000000e+00 0.0000e+00 -1.0000e+00
      -13  1    1    2    0    0 -2.6887379733e+02 -1.1092664473e+02 -2.1023798911e+02 3.5888417556e+02 0.0000000000e+00 0.0000e+00 -1.0000e+00
       13  1    1    2    0    0 +2.6887379733e+02 +1.1092664473e+02 +1.2174497317e+03 1.2517115037e+03 0.0000000000e+00 0.0000e+00 1.0000e+00
<mgrwt>
<rscale>  0 0.12567987E+04</rscale>
<asrwt>0</asrwt>
<pdfrwt beam="1">  1        2 0.20136980E+00 0.12567987E+04</pdfrwt>
<pdfrwt beam="2">  1       -2 0.46414150E-01 0.12567987E+04</pdfrwt>
<totfact> 0.88162812E+01</totfact>
</mgrwt>
<rwgt>
<wgt id='morphing_basis_vector_1'> +2.9306414e-04 </wgt>
<wgt id='morphing_basis_vector_2'> +1.8862793e-04 </wgt>
<wgt id='morphing_basis_vector_3'> +2.9612338e-04 </wgt>
<wgt id='morphing_basis_vector_4'> +1.9330929e-04 </wgt>
<wgt id='morphing_basis_vector_5'> +3.0719359e-04 </wgt>
</rwgt>
</event>
<event>
 4      1 +7.8865000e-07 1.28706600e+03 7.81860800e-03 8.45057200e-02
        2 -1    0    0  501    0 +0.0000000000e+00 +0.0000000000e+00 +4.3141811070e+02 4.3141811070e+02 0.0000000000e+00 0.0000e+00 1.0000e+00
       -2 -1    0    0    0  501 -0.0000000000e+00 -0.0000000000e+00 -9.5993804633e+02 9.5993804633e+02 0.0000000000e+00 0.0000e+00 -1.0000e+00
      -13  1    1    2    0    0 +6.5721439435e+01 -5.5723029487e+02 -6.0492963982e+02 8.2508470974e+02 0.0000000000e+00 0.0000e+00 -1.0000e+00
       13  1    1    2    0    0 -6.5721439435e+01 +5.5723029487e+02 +7.6409704187e+01 5.6627144729e+02 0.0000000000e+00 0.0000e+00 1.0000e+00
<mgrwt>
<rscale>  0 0.12870659E+04</rscale>
<asrwt>0</asrwt>
<pdfrwt beam="1">  1        2 0.66372018E-01 0.12870659E+04</pdfrwt>
<pdfrwt beam="2">  1       -2 0.14768277E+00 0.12870659E+04</pdfrwt>
<totfact> 0.26182489E+01</totfact>
</mgrwt>
<rwgt>
<wgt id='morphing_basis_vector_1'> +3.2229079e-04 </wgt>
<wgt id='morphing_basis_vector_2'> +2.1134340e-04 </wgt>
<wgt id='morphing_basis_vector_3'> +3.2724391e-04 </wgt>
<wgt id='morphing_basis_vector_4'> +2.1104656e-04 </wgt>
<wgt id='morphing_basis_vector_5'> +3.3934961e-04 </wgt>
</rwgt>
</event>
<event>
 4      1 +7.8865000e-07 1.11132400e+03 7.81860800e-03 8.58505300e-02
        2 -1    0    0  501    0 +0.0000000000e+00 +0.0000000000e+00 +1.2861131616e+03 1.2861131616e+03 0.0000000000e+00 0.0000e+00 1.0000e+00
       -2 -1    0    0    0  501 -0.0000000000e+00 -0.0000000000e+00 -2.4007245958e+02 2.4007245958e+02 0.0000000000e+00 0.0000e+00 -1.0000e+00
      -13  1    1    2    0    0 +8.3276759893e+01 +5.3962804504e+02 +6.6458994401e+02 8.6012396746e+02 0.0000000000e+00 0.0000e+00 -1.0000e+00
       13  1    1    2    0    0 -8.3276759893e+01 -5.3962804504e+02 +3.8145075797e+02 6.6606165367e+02 0.0000000000e+00 0.0000e+00 1.0000e+00
<mgrwt>
<rscale>  0 0.11113242E+04</rscale>
<asrwt>0</asrwt>
<pdfrwt beam="1">  1        2 0.19786356E+00 0.11113242E+04</pdfrwt>
<pdfrwt beam="2">  1       -2 0.36934225E-01 0.11113242E+04</pdfrwt>
<totfact> 0.14114218E+02</totfact>
</mgrwt>
<rwgt>
<wgt id='morphing_basis_vector_1'> +1.9678021e-04 </wgt>
<wgt id='morphing_basis_vector_2'> +1.5488130e-04 </wgt>
<wgt id='morphing_basis_vector_3'> +1.9496842e-04 </wgt>
<wgt id='morphing_basis_vector_4'> +9.4122320e-05 </wgt>
<wgt id='morphing_basis_vector_5'> +1.8097954e-04 </wgt>
</rwgt>
</event>
<event>
 4      1 +7.8865000e-07 1.08027600e+03 7.81860800e-03 8.61151600e-02
        2 -1    0    0  501    0 +0.0000000000e+00 +0.0000000000e+00 +1.8289787784e+03 1.8289787784e+03 0.0000000000e+00 0.0000e+00 1.0000e+00
       -2 -1    0    0    0  501 -0.0000000000e+00 -0.0000000000e+00 -1.5951473266e+02 1.5951473266e+02 0.0000000000e+00 0.0000e+00 -1.0000e+00
      -13  1    1    2    0    0 +6.5461408293e+01 +3.3333380353e+02 +6.1730791159e+01 3.4526411793e+02 0.0000000000e+00 0.0000e+00 -1.0000e+00
       13  1    1    2    0    0 -6.5461408293e+01 -3.3333380353e+02 +1.6077332546e+03 1.6432293932e+03 0.0000000000e+00 0.0000e+00 1.0000e+00
<mgrwt>
<rscale>  0 0.10802760E+04</rscale>
<asrwt>0</asrwt>
<pdfrwt beam="1">  1        2 0.28138134E+00 0.10802760E+04</pdfrwt>
<pdfrwt beam="2">  1       -2 0.24540729E-01 0.10802760E+04</pdfrwt>
<totfact> 0.14537558E+02</totfact>
</mgrwt>
<rwgt>
<wgt id='morphing_basis_vector_1'> +1.6571194e-04 </wgt>
<wgt id='morphing_basis_vector_2'> +1.0495829e-04 </wgt>
<wgt id='morphing_basis_vector_3'> +1.6245490e-04 </wgt>
<wgt id='morphing_basis_vector_4'> +1.0172602e-04 </wgt>
<wgt id='morphing_basis_vector_5'> +1.6148635e-04 </wgt>
</rwgt>
</event>
<event>
 4      1 +7.8865000e-07 1.28994700e+03 7.81860800e-03 8.44855800e-02
        2 -1    0    0  501    0 +0.0000000000e+00 +0.0000000000e+00 +2.6873941369e+02 2.6873941369e+02 0.0000000000e+00 0.0000e+00 -1.0000e+00
       -2 -1    0    0    0  501 -0.0000000000e+00 -0.0000000000e+00 -1.5479336634e+03 1.5479336634e+03 0.0000000000e+00 0.0000e+00 1.0000e+00
      -13  1    1    2    0    0 -4.5341654688e+02 -3.7028088002e+02 -1.0208787935e+03 1.1768126470e+03 0.0000000000e+00 0.0000e+00 1.0000e+00
       13  1    1    2    0    0 +4.5341654688e+02 +3.7028088002e+02 -2.5831545620e+02 6.3986043010e+02 0.0000000000e+00 0.0000e+00 -1.0000e+00
<mgrwt>
<rscale>  0 0.12899470E+04</rscale>
<asrwt>0</asrwt>
<pdfrwt beam="1">  1        2 0.41344525E-01 0.12899470E+04</pdfrwt>
<pdfrwt beam="2">  1       -2 0.23814364E+00 0.12899470E+04</pdfrwt>
<totfact> 0.93950262E+00</totfact>
</mgrwt>
<rwgt>
<wgt id='morphing_basis_vector_1'> +3.2567412e-04 </wgt>
<wgt id='morphing_basis_vector_2'> +2.1507235e-04 </wgt>
<wgt id='morphing_basis_vector_3'> +3.3091810e-04 </wgt>
<wgt id='morphing_basis_vector_4'> +2.1192515e-04 </wgt>
<wgt id='morphing_basis_vector_5'> +3.4247347e-04 </wgt>
</rwgt>
</event>
<event>
 4      1 +7.8865000e-07 1.07200100e+03 7.81860800e-03 8.61872400e-02
        2 -1    0    0  501    0 +0.0000000000e+00 +0.0000000000e+00 +5.9119511062e+02 5.9119511062e+02 0.0000000000e+00 0.0000e+00 -1.0000e+00
       -2 -1    0    0    0  501 -0.0000000000e+00 -0.0000000000e+00 -4.8595916397e+02 4.8595916397e+02 0.0000000000e+00 0.0000e+00 1.0000e+00
      -13  1    1    2    0    0 +1.3331696391e+02 +2.2694470180e+02 -4.1655193550e+02 4.9274011965e+02 0.0000000000e+00 0.0000e+00 1.0000e+00
       13  1    1    2    0    0 -1.3331696391e+02 -2.2694470180e+02 +5.2178788215e+02 5.8441415494e+02 0.0000000000e+00 0.0000e+00 -1.0000e+00
<mgrwt>
<rscale>  0 0.10720013E+04</rscale>
<asrwt>0</asrwt>
<pdfrwt beam="1">  1        2 0.90953094E-01 0.10720013E+04</pdfrwt>
<pdfrwt beam="2">  1       -2 0.74762949E-01 0.10720013E+04</pdfrwt>
<totfact> 0.10057806E+02</totfact>
</mgrwt>
<rwgt>
<wgt id='morphing_basis_vector_1'> +1.6095185e-04 </wgt>
<wgt id='morphing_basis_vector_2'> +1.0167316e-04 </wgt>
<wgt id='morphing_basis_vector_3'> +1.5750854e-04 </wgt>
<wgt id='morphing_basis_vector_4'> +9.8550565e-05 </wgt>
<wgt id='morphing_basis_vector_5'> +1.5624974e-04 </wgt>
</rwgt>
</event>
<event>
 4      1 +7.8865000e-07 1.23781500e+03 7.81860800e-03 8.48587100e-02
        2 -1    0    0  501    0 +0.0000000000e+00 +0.0000000000e+00 +7.1322707021e+02 7.1322707021e+02 0.0000000000e+00 0.0000e+00 1.0000e+00
       -2 -1    0    0    0  501 -0.0000000000e+00 -0.0000000000e+00 -5.3706142486e+02 5.3706142486e+02 0.0000000000e+00 0.0000e+00 -1.0000e+00
      -13  1    1    2    0    0 +8.7196467026e+01 +1.2778812281e+02 -5.1721672326e+02 5.3985754326e+02 0.0000000000e+00 0.0000e+00 -1.0000e+00
       13  1    1    2    0    0 -8.7196467026e+01 -1.2778812281e+02 +6.9338236861e+02 7.1043095181e+02 0.0000000000e+00 0.0000e+00 1.0000e+00
<mgrwt>
<rscale>  0 0.12378154E+04</rscale>
<asrwt>0</asrwt>
<pdfrwt beam="1">  1        2 0.10972724E+00 0.12378154E+04</pdfrwt>
<pdfrwt beam="2">  1       -2 0.82624834E-01 0.12378154E+04</pdfrwt>
<totfact> 0.63342982E+01</totfact>
</mgrwt>
<rwgt>
<wgt id='morphing_basis_vector_1'> +2.7656430e-04 </wgt>
<wgt id='morphing_basis_vector_2'> +1.7763281e-04 </wgt>
<wgt id='morphing_basis_vector_3'> +2.7869345e-04 </wgt>
<wgt id='morphing_basis_vector_4'> +1.8139687e-04 </wgt>
<wgt id='morphing_basis_vector_5'> +2.8811377e-04 </wgt>
</rwgt>
</event>
<event>
 4      1 +7.8865000e-07 1.11150300e+03 7.81860800e-03 8.58490300e-02
        2 -1    0    0  501    0 +0.0000000000e+00 +0.0000000000e+00 +9.3220766796e+02 9.3220766796e+02 0.0000000000e+00 0.0000e+00 1.0000e+00
       -2 -1    0    0    0  501 -0.0000000000e+00 -0.0000000000e+00 -3.3132067116e+02 3.3132067116e+02 0.0000000000e+00 0.0000e+00 -1.0000e+00
      -13  1    1    2    0    0 +2.6863207087e+02 +3.9360973948e+01 -2.5080102826e+02 3.6961281302e+02 0.0000000000e+00 0.0000e+00 -1.0000e+00
       13  1    1    2    0    0 -2.6863207087e+02 -3.9360973948e+01 +8.5168802506e+02 8.9391552610e+02 0.0000000000e+00 0.0000e+00 1.0000e+00
<mgrwt>
<rscale>  0 0.11115029E+04</rscale>
<asrwt>0</asrwt>
<pdfrwt beam="1">  1        2 0.14341656E+00 0.11115029E+04</pdfrwt>
<pdfrwt beam="2">  1       -2 0.50972411E-01 0.11115029E+04</pdfrwt>
<totfact> 0.12492011E+02</totfact>
</mgrwt>
<rwgt>
<wgt id='morphing_basis_vector_1'> +1.8428256e-04 </wgt>
<wgt id='morphing_basis_vector_2'> +1.1695777e-04 </wgt>
<wgt id='morphing_basis_vector_3'> +1.8180151e-04 </wgt>
<wgt id='morphing_basis_vector_4'> +1.1500053e-04 </wgt>
<wgt id='morphing_basis_vector_5'> +1.8245220e-04 </wgt>
</rwgt>
</event>
<event>
 4      1 +7.8865000e-07 1.11224800e+03 7.81860800e-03 8.58427900e-02
        2 -1    0    0  501    0 +0.0000000000e+00 +0.0000000000e+00 +4.4812956877e+02 4.4812956877e+02 0.0000000000e+00 0.0000e+00 -1.0000e+00
       -2 -1    0    0    0  501 -0.0000000000e+00 -0.0000000000e+00 -6.9014421432e+02 6.9014421432e+02 0.0000000000e+00 0.0000e+00 1.0000e+00
      -13  1    1    2    0    0 +3.0976418719e+02 +2.9871291830e+02 -4.8151519366e+02 6.4578645151e+02 0.0000000000e+00 0.0000e+00 1.0000e+00
       13  1    1    2    0    0 -3.0976418719e+02 -2.9871291830e+02 +2.3950054811e+02 4.9248733158e+02 0.0000000000e+00 0.0000e+00 -1.0000e+00
<mgrwt>
<rscale>  0 0.11122482E+04</rscale>
<asrwt>0</asrwt>
<pdfrwt beam="1">  1        2 0.68943011E-01 0.11122482E+04</pdfrwt>
<pdfrwt beam="2">  1       -2 0.10617603E+00 0.11122482E+04</pdfrwt>
<totfact> 0.60853041E+01</totfact>
</mgrwt>
<rwgt>
<wgt id='morphing_basis_vector_1'> +1.8508102e-04 </wgt>
<wgt id='morphing_basis_vector_2'> +1.1827052e-04 </wgt>
<wgt id='morphing_basis_vector_3'> +1.8263832e-04 </wgt>
<wgt id='morphing_basis_vector_4'> +1.1477677e-04 </wgt>
<wgt id='morphing_basis_vector_5'> +1.8293980e-04 </wgt>
</rwgt>
</event>
<event>
 4      1 +7.8865000e-07 1.13179200e+03 7.81860800e-03 8.56808900e-02
        2 -1    0    0  501    0 +0.0000000000e+00 +0.0000000000e+00 +1.8569340067e+03 1.8569340067e+03 0.0000000000e+00 0.0000e+00 -1.0000e+00
       -2 -1    0    0    0  501 -0.0000000000e+00 -0.0000000000e+00 -1.7245524945e+02 1.7245524945e+02 0.0000000000e+00 0.0000e+00 1.0000e+00
      -13  1    1    2    0    0 -1.2048875348e+02 -3.9629513966e+02 +1.5086779989e+02 4.4082703011e+02 0.0000000000e+00 0.0000e+00 1.0000e+00
       13  1    1    2    0    0 +1.2048875348e+02 +3.9629513966e+02 +1.5336109574e+03 1.5885622260e+03 0.0000000000e+00 0.0000e+00 -1.0000e+00
<mgrwt>
<rscale>  0 0.11317915E+04</rscale>
<asrwt>0</asrwt>
<pdfrwt beam="1">  1        2 0.28568214E+00 0.11317915E+04</pdfrwt>
<pdfrwt beam="2">  1       -2 0.26531578E-01 0.11317915E+04</pdfrwt>
<totfact> 0.12211900E+02</totfact>
</mgrwt>
<rwgt>
<wgt id='morphing_basis_vector_1'> +1.9747536e-04 </wgt>
<wgt id='morphing_basis_vector_2'> +1.2619606e-04 </wgt>
<wgt id='morphing_basis_vector_3'> +1.9558891e-04 </wgt>
<wgt id='morphing_basis_vector_4'> +1.2378496e-04 </wgt>
<wgt id='morphing_basis_vector_5'> +1.9707015e-04 </wgt>
</rwgt>
</event>
<event>
 4      1 +7.8865000e-07 1.17687400e+03 7.81860800e-03 8.53201500e-02
        2 -1    0    0  501    0 +0.0000000000e+00 +0.0000000000e+00 +2.0629118668e+03 2.0629118668e+03 0.0000000000e+00 0.0000e+00 1.0000e+00
       -2 -1    0    0    0  501 -0.0000000000e+00 -0.0000000000e+00 -1.6784925150e+02 1.6784925150e+02 0.0000000000e+00 0.0000e+00 -1.0000e+00
      -13  1    1    2    0    0 +2.0751152047e+02 -3.0176444606e+02 +7.4500431704e+01 3.7372868014e+02 0.0000000000e+00 0.0000e+00 -1.0000e+00
       13  1    1    2    0    0 -2.0751152047e+02 +3.0176444606e+02 +1.8205621836e+03 1.8570324382e+03 0.0000000000e+00 0.0000e+00 1.0000e+00
<mgrwt>
<rscale>  0 0.11768742E+04</rscale>
<asrwt>0</asrwt>
<pdfrwt beam="1">  1        2 0.31737104E+00 0.11768742E+04</pdfrwt>
<pdfrwt beam="2">  1       -2 0.25822963E-01 0.11768742E+04</pdfrwt>
<totfact> 0.97891336E+01</totfact>
</mgrwt>
<rwgt>
<wgt id='morphing_basis_vector_1'> +2.2858473e-04 </wgt>
<wgt id='morphing_basis_vector_2'> +1.4630457e-04 </wgt>
<wgt id='morphing_basis_vector_3'> +2.2818892e-04 </wgt>
<wgt id='morphing_basis_vector_4'> +1.4638824e-04 </wgt>
<wgt id='morphing_basis_vector_5'> +2.3270036e-04 </wgt>
</rwgt>
</event>
<event>
 4      1 +7.8865000e-07 1.25761000e+03 7.81860800e-03 8.47148000e-02
        2 -1    0    0  501    0 +0.0000000000e+00 +0.0000000000e+00 +1.3369350669e+03 1.3369350669e+03 0.0000000000e+00 0.0000e+00 -1.0000e+00
       -2 -1    0    0    0  501 -0.0000000000e+00 -0.0000000000e+00 -2.9574777954e+02 2.9574777954e+02 0.0000000000e+00 0.0000e+00 1.0000e+00
      -13  1    1    2    0    0 +9.3158226031e+01 +3.9275033507e+02 -1.0534830977e+02 4.1716848772e+02 0.0000000000e+00 0.0000e+00 1.0000e+00
       13  1    1    2    0    0 -9.3158226031e+01 -3.9275033507e+02 +1.1465355971e+03 1.2155143587e+03 0.0000000000e+00 0.0000e+00 -1.0000e+00
<mgrwt>
<rscale>  0 0.12576098E+04</rscale>
<asrwt>0</asrwt>
<pdfrwt beam="1">  1        2 0.20568231E+00 0.12576098E+04</pdfrwt>
<pdfrwt beam="2">  1       -2 0.45499659E-01 0.12576098E+04</pdfrwt>
<totfact> 0.88290725E+01</totfact>
</mgrwt>
<rwgt>
<wgt id='morphing_basis_vector_1'> +2.9394591e-04 </wgt>
<wgt id='morphing_basis_vector_2'> +1.8959004e-04 </wgt>
<wgt id='morphing_basis_vector_3'> +2.9707442e-04 </wgt>
<wgt id='morphing_basis_vector_4'> +1.9354963e-04 </wgt>
<wgt id='morphing_basis_vector_5'> +3.0800946e-04 </wgt>
</rwgt>
</event>
<event>
 4      1 +7.8865000e-07 1.09607000e+03 7.81860800e-03 8.59794100e-02
        2 -1    0    0  501    0 +0.0000000000e+00 +0.0000000000e+00 +8.7859205324e+02 8.7859205324e+02 0.0000000000e+00 0.0000e+00 1.0000e+00
       -2 -1    0    0    0  501 -0.0000000000e+00 -0.0000000000e+00 -3.4184531981e+02 3.4184531981e+02 0.0000000000e+00 0.0000e+00 -1.0000e+00
      -13  1    1    2    0    0 -1.2381266251e+02 -3.5594842039e+02 -1.7465989815e+02 4.1537324589e+02 0.0000000000e+00 0.0000e+00 -1.0000e+00
       13  1    1    2    0    0 +1.2381266251e+02 +3.5594842039e+02 +7.1140663159e+02 8.0506412716e+02 0.0000000000e+00 0.0000e+00 1.0000e+00
<mgrwt>
<rscale>  0 0.10960704E+04</rscale>
<asrwt>0</asrwt>
<pdfrwt beam="1">  1        2 0.13516801E+00 0.10960704E+04</pdfrwt>
<pdfrwt beam="2">  1       -2 0.52591588E-01 0.10960704E+04</pdfrwt>
<totfact> 0.12741230E+02</totfact>
</mgrwt>
<rwgt>
<wgt id='morphing_basis_vector_1'> +1.7502106e-04 </wgt>
<wgt id='morphing_basis_vector_2'> +1.1122139e-04 </wgt>
<wgt id='morphing_basis_vector_3'> +1.7214495e-04 </wgt>
<wgt id='morphing_basis_vector_4'> +1.0811781e-04 </wgt>
<wgt id='morphing_basis_vector_5'> +1.7184506e-04 </wgt>
</rwgt>
</event>
<event>
 4      1 +7.8865000e-07 1.14037400e+03 7.81860800e-03 8.56108600e-02
        2 -1    0    0  501    0 +0.0000000000e+00 +0.0000000000e+00 +4.0890058356e+02 4.0890058356e+02 0.0000000000e+00 0.0000e+00 -1.0000e+00
       -2 -1    0    0    0  501 -0.0000000000e+00 -0.0000000000e+00 -7.9509122590e+02 7.9509122590e+02 0.0000000000e+00 0.0000e+00 1.0000e+00
      -13  1    1    2    0    0 +1.7020176102e+02 +1.6767666001e+02 -7.3969228814e+02 7.7732154408e+02 0.0000000000e+00 0.0000e+00 1.0000e+00
       13  1    1    2    0    0 -1.7020176102e+02 -1.6767666001e+02 +3.5350164580e+02 4.2667026537e+02 0.0000000000e+00 0.0000e+00 -1.0000e+00
<mgrwt>
<rscale>  0 0.11403741E+04</rscale>
<asrwt>0</asrwt>
<pdfrwt beam="1">  1        2 0.62907783E-01 0.11403741E+04</pdfrwt>
<pdfrwt beam="2">  1       -2 0.12232173E+00 0.11403741E+04</pdfrwt>
<totfact> 0.46975981E+01</totfact>
</mgrwt>
<rwgt>
<wgt id='morphing_basis_vector_1'> +2.0289394e-04 </wgt>
<wgt id='morphing_basis_vector_2'> +1.2913618e-04 </wgt>
<wgt id='morphing_basis_vector_3'> +2.0124983e-04 </wgt>
<wgt id='morphing_basis_vector_4'> +1.2827150e-04 </wgt>
<wgt id='morphing_basis_vector_5'> +2.0354672e-04 </wgt>
</rwgt>
</event>
<event>
 4      1 +7.8865000e-07 1.11313800e+03 7.81860800e-03 8.58353400e-02
        2 -1    0    0  501    0 +0.0000000000e+00 +0.0000000000e+00 +1.8615874840e+03 1.8615874840e+03 0.0000000000e+00 0.0000e+00 -1.0000e+00
       -2 -1    0    0    0  501 -0.0000000000e+00 -0.0000000000e+00 -1.6640061287e+02 1.6640061287e+02 0.0000000000e+00 0.0000e+00 1.0000e+00
      -13  1    1    2    0    0 -3.6487396321e+02 -5.5734897091e+01 +8.8660515819e+01 3.7960515651e+02 0.0000000000e+00 0.0000e+00 1.0000e+00
       13  1    1    2    0    0 +3.6487396321e+02 +5.5734897091e+01 +1.6065263553e+03 1.6483829404e+03 0.0000000000e+00 0.0000e+00 -1.0000e+00
<mgrwt>
<rscale>  0 0.11131384E+04</rscale>
<asrwt>0</asrwt>
<pdfrwt beam="1">  1        2 0.28639806E+00 0.11131384E+04</pdfrwt>
<pdfrwt beam="2">  1       -2 0.25600096E-01 0.11131384E+04</pdfrwt>
<totfact> 0.12933631E+02</totfact>
</mgrwt>
<rwgt>
<wgt id='morphing_basis_vector_1'> +1.8541979e-04 </wgt>
<wgt id='morphing_basis_vector_2'> +1.1798277e-04 </wgt>
<wgt id='morphing_basis_vector_3'> +1.8298962e-04 </wgt>
<wgt id='morphing_basis_vector_4'> +1.1552708e-04 </wgt>
<wgt id='morphing_basis_vector_5'> +1.8358950e-04 </wgt>
</rwgt>
</event>
<event>
 4      1 +7.8865000e-07 1.15636800e+03 7.81860800e-03 8.54820900e-02
        2 -1    0    0  501    0 +0.0000000000e+00 +0.0000000000e+00 +4.5541586348e+02 4.5541586348e+02 0.0000000000e+00 0.0000e+00 1.0000e+00
       -2 -1    0    0    0  501 -0.0000000000e+00 -0.0000000000e+00 -7.3404706145e+02 7.3404706145e+02 0.0000000000e+00 0.0000e+00 -1.0000e+00
      -13  1    1    2    0    0 -3.5675646030e+02 -7.1674832052e+01 +3.2285900197e+02 4.8646725343e+02 0.0000000000e+00 0.0000e+00 1.0000e+00
       13  1    1    2    0    0 +3.5675646030e+02 +7.1674832052e+01 -6.0149019995e+02 7.0299567150e+02 0.0000000000e+00 0.0000e+00 -1.0000e+00
<mgrwt>
<rscale>  0 0.11563679E+04</rscale>
<asrwt>0</asrwt>
<pdfrwt beam="1">  1        2 0.70063979E-01 0.11563679E+04</pdfrwt>
<pdfrwt beam="2">  1       -2 0.11293032E+00 0.11563679E+04</pdfrwt>
<totfact> 0.51037198E+01</totfact>
</mgrwt>
<rwgt>
<wgt id='morphing_basis_vector_1'> +2.8247063e-04 </wgt>
<wgt id='morphing_basis_vector_2'> +3.4286039e-04 </wgt>
<wgt id='morphing_basis_vector_3'> +2.8787024e-04 </wgt>
<wgt id='morphing_basis_vector_4'> +2.0401654e-05 </wgt>
<wgt id='morphing_basis_vector_5'> +2.0829128e-04 </wgt>
</rwgt>
</event>
<event>
 4      1 +7.8865000e-07 1.16139000e+03 7.81860800e-03 8.54421100e-02
        2 -1    0    0  501    0 +0.0000000000e+00 +0.0000000000e+00 +2.6196489831e+03 2.6196489831e+03 0.0000000000e+00 0.0000e+00 -1.0000e+00
       -2 -1    0    0    0  501 -0.0000000000e+00 -0.0000000000e+00 -1.2872198044e+02 1.2872198044e+02 0.0000000000e+00 0.0000e+00 1.0000e+00
      -13  1    1    2    0    0 +4.7248615261e+02 +7.1818791986e+00 +4.4676744287e+02 6.5030446085e+02 0.0000000000e+00 0.0000e+00 1.0000e+00
       13  1    1    2    0    0 -4.7248615261e+02 -7.1818791986e+00 +2.0441595598e+03 2.0980665027e+03 0.0000000000e+00 0.0000e+00 -1.0000e+00
<mgrwt>
<rscale>  0 0.11613895E+04</rscale>
<asrwt>0</asrwt>
<pdfrwt beam="1">  1        2 0.40302288E+00 0.11613895E+04</pdfrwt>
<pdfrwt beam="2">  1       -2 0.19803384E-01 0.11613895E+04</pdfrwt>
<totfact> 0.73232699E+01</totfact>
</mgrwt>
<rwgt>
<wgt id='morphing_basis_vector_1'> +2.1791985e-04 </wgt>
<wgt id='morphing_basis_vector_2'> +1.4038877e-04 </wgt>
<wgt id='morphing_basis_vector_3'> +2.1702026e-04 </wgt>
<wgt id='morphing_basis_vector_4'> +1.3760775e-04 </wgt>
<wgt id='morphing_basis_vector_5'> +2.1992297e-04 </wgt>
</rwgt>
</event>
<event>
 4      1 +7.8865000e-07 1.22037200e+03 7.81860800e-03 8.49878900e-02
        2 -1    0    0  501    0 +0.0000000000e+00 +0.0000000000e+00 +1.5932226580e+03 1.5932226580e+03 0.0000000000e+00 0.0000e+00 -1.0000e+00
       -2 -1    0    0    0  501 -0.0000000000e+00 -0.0000000000e+00 -2.3369421960e+02 2.3369421960e+02 0.0000000000e+00 0.0000e+00 1.0000e+00
      -13  1    1    2    0    0 +4.6396582819e+02 -3.3189377757e+02 +3.5553258782e+02 6.7217645773e+02 0.0000000000e+00 0.0000e+00 1.0000e+00
       13  1    1    2    0    0 -4.6396582819e+02 +3.3189377757e+02 +1.0039958506e+03 1.1547404199e+03 0.0000000000e+00 0.0000e+00 -1.0000e+00
<mgrwt>
<rscale>  0 0.12203720E+04</rscale>
<asrwt>0</asrwt>
<pdfrwt beam="1">  1        2 0.24511117E+00 0.12203720E+04</pdfrwt>
<pdfrwt beam="2">  1       -2 0.35952958E-01 0.12203720E+04</pdfrwt>
<totfact> 0.98850535E+01</totfact>
</mgrwt>
<rwgt>
<wgt id='morphing_basis_vector_1'> +2.6438802e-04 </wgt>
<wgt id='morphing_basis_vector_2'> +1.7502136e-04 </wgt>
<wgt id='morphing_basis_vector_3'> +2.6606729e-04 </wgt>
<wgt id='morphing_basis_vector_4'> +1.6687168e-04 </wgt>
<wgt id='morphing_basis_vector_5'> +2.7108702e-04 </wgt>
</rwgt>
</event>
<event>
 4      1 +7.8865000e-07 1.21198400e+03 7.81860800e-03 8.50508200e-02
        2 -1    0    0  501    0 +0.0000000000e+00 +0.0000000000e+00 +4.3785499111e+02 4.3785499111e+02 0.0000000000e+00 0.0000e+00 -1.0000e+00
       -2 -1    0    0    0  501 -0.0000000000e+00 -0.0000000000e+00 -8.3869329281e+02 8.3869329281e+02 0.0000000000e+00 0.0000e+00 1.0000e+00
      -13  1    1    2    0    0 +5.5740353986e+02 +2.1705981203e+02 -3.0260485638e+02 6.7036062485e+02 0.0000000000e+00 0.0000e+00 1.0000e+00
       13  1    1    2    0    0 -5.5740353986e+02 -2.1705981203e+02 -9.8233445316e+01 6.0618765908e+02 0.0000000000e+00 0.0000e+00 -1.0000e+00
<mgrwt>
<rscale>  0 0.12119836E+04</rscale>
<asrwt>0</asrwt>
<pdfrwt beam="1">  1        2 0.67362307E-01 0.12119836E+04</pdfrwt>
<pdfrwt beam="2">  1       -2 0.12902974E+00 0.12119836E+04</pdfrwt>
<totfact> 0.37566660E+01</totfact>
</mgrwt>
<rwgt>
<wgt id='morphing_basis_vector_1'> +2.6037444e-04 </wgt>
<wgt id='morphing_basis_vector_2'> +1.7880948e-04 </wgt>
<wgt id='morphing_basis_vector_3'> +2.6206408e-04 </wgt>
<wgt id='morphing_basis_vector_4'> +1.5725661e-04 </wgt>
<wgt id='morphing_basis_vector_5'> +2.6297083e-04 </wgt>
</rwgt>
</event>
<event>
 4      1 +7.8865000e-07 1.19985300e+03 7.81860800e-03 8.51427800e-02
        2 -1    0    0  501    0 +0.0000000000e+00 +0.0000000000e+00 +2.0750072842e+03 2.0750072842e+03 0.0000000000e+00 0.0000e+00 -1.0000e+00
       -2 -1    0    0    0  501 -0.0000000000e+00 -0.0000000000e+00 -1.7345088315e+02 1.7345088315e+02 0.0000000000e+00 0.0000e+00 1.0000e+00
      -13  1    1    2    0    0 +2.5552688403e+02 +4.6596625766e+02 +1.4724397599e+03 1.5654064610e+03 0.0000000000e+00 0.0000e+00 1.0000e+00
       13  1    1    2    0    0 -2.5552688403e+02 -4.6596625766e+02 +4.2911664110e+02 6.8305170625e+02 0.0000000000e+00 0.0000e+00 -1.0000e+00
<mgrwt>
<rscale>  0 0.11998531E+04</rscale>
<asrwt>0</asrwt>
<pdfrwt beam="1">  1        2 0.31923187E+00 0.11998531E+04</pdfrwt>
<pdfrwt beam="2">  1       -2 0.26684753E-01 0.11998531E+04</pdfrwt>
<totfact> 0.90864783E+01</totfact>
</mgrwt>
<rwgt>
<wgt id='morphing_basis_vector_1'> +2.8626876e-04 </wgt>
<wgt id='morphing_basis_vector_2'> +2.7896412e-04 </wgt>
<wgt id='morphing_basis_vector_3'> +2.9206482e-04 </wgt>
<wgt id='morphing_basis_vector_4'> +8.9615446e-05 </wgt>
<wgt id='morphing_basis_vector_5'> +2.4787475e-04 </wgt>
</rwgt>
</event>
<event>
 4      1 +7.8865000e-07 1.25117000e+03 7.81860800e-03 8.47613100e-02
        2 -1    0    0  501    0 +0.0000000000e+00 +0.0000000000e+00 +1.5274979511e+03 1.5274979511e+03 0.0000000000e+00 0.0000e+00 1.0000e+00
       -2 -1    0    0    0  501 -0.0000000000e+00 -0.0000000000e+00 -2.5620764310e+02 2.5620764310e+02 0.0000000000e+00 0.0000e+00 -1.0000e+00
      -13  1    1    2    0    0 -1.1072196798e+02 -4.9028579360e+02 +1.0467283939e+02 5.1341592973e+02 0.0000000000e+00 0.0000e+00 -1.0000e+00
       13  1    1    2    0    0 +1.1072196798e+02 +4.9028579360e+02 +1.1666174687e+03 1.2702896645e+03 0.0000000000e+00 0.0000e+00 1.0000e+00
<mgrwt>
<rscale>  0 0.12511701E+04</rscale>
<asrwt>0</asrwt>
<pdfrwt beam="1">  1        2 0.23499968E+00 0.12511701E+04</pdfrwt>
<pdfrwt beam="2">  1       -2 0.39416561E-01 0.12511701E+04</pdfrwt>
<totfact> 0.90534951E+01</totfact>
</mgrwt>
<rwgt>
<wgt id='morphing_basis_vector_1'> +2.8880260e-04 </wgt>
<wgt id='morphing_basis_vector_2'> +1.8743584e-04 </wgt>
<wgt id='morphing_basis_vector_3'> +2.9169929e-04 </wgt>
<wgt id='morphing_basis_vector_4'> +1.8848278e-04 </wgt>
<wgt id='morphing_basis_vector_5'> +3.0135650e-04 </wgt>
</rwgt>
</event>
<event>
 4      1 +7.8865000e-07 1.10491700e+03 7.81860800e-03 8.59044000e-02
        2 -1    0    0  501    0 +0.0000000000e+00 +0.0000000000e+00 +1.8188368931e+03 1.8188368931e+03 0.0000000000e+00 0.0000e+00 1.0000e+00
       -2 -1    0    0    0  501 -0.0000000000e+00 -0.0000000000e+00 -1.6780517209e+02 1.6780517209e+02 0.0000000000e+00 0.0000e+00 -1.0000e+00
      -13  1    1    2    0    0 +1.2215264492e+02 -4.4761690118e+02 +2.8633093618e+02 5.4522249027e+02 0.0000000000e+00 0.0000e+00 -1.0000e+00
       13  1    1    2    0    0 -1.2215264492e+02 +4.4761690118e+02 +1.3647007848e+03 1.4414195749e+03 0.0000000000e+00 0.0000e+00 1.0000e+00
<mgrwt>
<rscale>  0 0.11049167E+04</rscale>
<asrwt>0</asrwt>
<pdfrwt beam="1">  1        2 0.27982105E+00 0.11049167E+04</pdfrwt>
<pdfrwt beam="2">  1       -2 0.25816182E-01 0.11049167E+04</pdfrwt>
<totfact> 0.13470190E+02</totfact>
</mgrwt>
<rwgt>
<wgt id='morphing_basis_vector_1'> +1.8081408e-04 </wgt>
<wgt id='morphing_basis_vector_2'> +1.1607697e-04 </wgt>
<wgt id='morphing_basis_vector_3'> +1.7818603e-04 </wgt>
<wgt id='morphing_basis_vector_4'> +1.1115503e-04 </wgt>
<wgt id='morphing_basis_vector_5'> +1.7781213e-04 </wgt>
</rwgt>
</event>
<event>
 4      1 +7.8865000e-07 1.14571100e+03 7.81860800e-03 8.55676500e-02
        2 -1    0    0  501    0 +0.0000000000e+00 +0.0000000000e+00 +6.4460183945e+02 6.4460183945e+02 0.0000000000e+00 0.0000e+00 1.0000e+00
       -2 -1    0    0    0  501 -0.0000000000e+00 -0.0000000000e+00 -5.0909434538e+02 5.0909434538e+02 0.0000000000e+00 0.0000e+00 -1.0000e+00
      -13  1    1    2    0    0 -4.8156165715e+00 -5.6066167324e+02 -5.0531804134e+01 5.6295485186e+02 0.0000000000e+00 0.0000e+00 -1.0000e+00
       13  1    1    2    0    0 +4.8156165715e+00 +5.6066167324e+02 +1.8603929820e+02 5.9074133297e+02 0.0000000000e+00 0.0000e+00 1.0000e+00
<mgrwt>
<rscale>  0 0.11457105E+04</rscale>
<asrwt>0</asrwt>
<pdfrwt beam="1">  1        2 0.99169514E-01 0.11457105E+04</pdfrwt>
<pdfrwt beam="2">  1       -2 0.78322207E-01 0.11457105E+04</pdfrwt>
<totfact> 0.81419282E+01</totfact>
</mgrwt>
<rwgt>
<wgt id='morphing_basis_vector_1'> +2.0989463e-04 </wgt>
<wgt id='morphing_basis_vector_2'> +1.4174760e-04 </wgt>
<wgt id='morphing_basis_vector_3'> +2.0871010e-04 </wgt>
<wgt id='morphing_basis_vector_4'> +1.2512702e-04 </wgt>
<wgt id='morphing_basis_vector_5'> +2.0725600e-04 </wgt>
</rwgt>
</event>
<event>
 4      1 +7.8865000e-07 1.25176200e+03 7.81860800e-03 8.47570300e-02
        2 -1    0    0  501    0 +0.0000000000e+00 +0.0000000000e+00 +3.1304192345e+02 3.1304192345e+02 0.0000000000e+00 0.0000e+00 -1.0000e+00
       -2 -1    0    0    0  501 -0.0000000000e+00 -0.0000000000e+00 -1.2513558712e+03 1.2513558712e+03 0.0000000000e+00 0.0000e+00 1.0000e+00
      -13  1    1    2    0    0 -5.8404207454e+02 +1.6220031875e+02 -6.6402593359e+02 8.9907982333e+02 0.0000000000e+00 0.0000e+00 1.0000e+00
       13  1    1    2    0    0 +5.8404207454e+02 -1.6220031875e+02 -2.7428801413e+02 6.6531797130e+02 0.0000000000e+00 0.0000e+00 -1.0000e+00
<mgrwt>
<rscale>  0 0.12517617E+04</rscale>
<asrwt>0</asrwt>
<pdfrwt beam="1">  1        2 0.48160296E-01 0.12517617E+04</pdfrwt>
<pdfrwt beam="2">  1       -2 0.19251629E+00 0.12517617E+04</pdfrwt>
<totfact> 0.16820283E+01</totfact>
</mgrwt>
<rwgt>
<wgt id='morphing_basis_vector_1'> +2.9260347e-04 </wgt>
<wgt id='morphing_basis_vector_2'> +1.9762366e-04 </wgt>
<wgt id='morphing_basis_vector_3'> +2.9608945e-04 </wgt>
<wgt id='morphing_basis_vector_4'> +1.8311911e-04 </wgt>
<wgt id='morphing_basis_vector_5'> +3.0155967e-04 </wgt>
</rwgt>
</event>
<event>
 4      1 +7.8865000e-07 1.13079600e+03 7.81860800e-03 8.56890500e-02
        2 -1    0    0  501    0 +0.0000000000e+00 +0.0000000000e+00 +7.1691144395e+02 7.1691144395e+02 0.0000000000e+00 0.0000e+00 1.0000e+00
       -2 -1    0    0    0  501 -0.0000000000e+00 -0.0000000000e+00 -4.4590578090e+02 4.4590578090e+02 0.0000000000e+00 0.0000e+00 -1.0000e+00
      -13  1    1    2    0    0 +2.4577324337e+02 +5.0886116371e+02 +1.5420538112e+02 5.8576742028e+02 0.0000000000e+00 0.0000e+00 -1.0000e+00
       13  1    1    2    0    0 -2.4577324337e+02 -5.0886116371e+02 +1.1680028193e+02 5.7704980457e+02 0.0000000000e+00 0.0000e+00 1.0000e+00
<mgrwt>
<rscale>  0 0.11307961E+04</rscale>
<asrwt>0</asrwt>
<pdfrwt beam="1">  1        2 0.11029407E+00 0.11307961E+04</pdfrwt>
<pdfrwt beam="2">  1       -2 0.68600889E-01 0.11307961E+04</pdfrwt>
<totfact> 0.95639248E+01</totfact>
</mgrwt>
<rwgt>
<wgt id='morphing_basis_vector_1'> +2.0448003e-04 </wgt>
<wgt id='morphing_basis_vector_2'> +1.4882176e-04 </wgt>
<wgt id='morphing_basis_vector_3'> +2.0311475e-04 </wgt>
<wgt id='morphing_basis_vector_4'> +1.1057295e-04 </wgt>
<wgt id='morphing_basis_vector_5'> +1.9549695e-04 </wgt>
</rwgt>
</event>
<event>
 4      1 +7.8865000e-07 1.17911000e+03 7.81860800e-03 8.53027100e-02
        2 -1    0    0  501    0 +0.0000000000e+00 +0.0000000000e+00 +1.5195744017e+03 1.5195744017e+03 0.0000000000e+00 0.0000e+00 1.0000e+00
       -2 -1    0    0    0  501 -0.0000000000e+00 -0.0000000000e+00 -2.2873194927e+02 2.2873194927e+02 0.0000000000e+00 0.0000e+00 -1.0000e+00
      -13  1    1    2    0    0 -3.3195169960e+02 +3.3507915704e+02 +1.2097508506e+02 4.8693422919e+02 0.0000000000e+00 0.0000e+00 -1.0000e+00
       13  1    1    2    0    0 +3.3195169960e+02 -3.3507915704e+02 +1.1698673674e+03 1.2613721218e+03 0.0000000000e+00 0.0000e+00 1.0000e+00
<mgrwt>
<rscale>  0 0.11791102E+04</rscale>
<asrwt>0</asrwt>
<pdfrwt beam="1">  1        2 0.23378067E+00 0.11791102E+04</pdfrwt>
<pdfrwt beam="2">  1       -2 0.35189531E-01 0.11791102E+04</pdfrwt>
<totfact> 0.11332520E+02</totfact>
</mgrwt>
<rwgt>
<wgt id='morphing_basis_vector_1'> +2.3066348e-04 </wgt>
<wgt id='morphing_basis_vector_2'> +1.4869590e-04 </wgt>
<wgt id='morphing_basis_vector_3'> +2.3040015e-04 </wgt>
<wgt id='morphing_basis_vector_4'> +1.4682810e-04 </wgt>
<wgt id='morphing_basis_vector_5'> +2.3453178e-04 </wgt>
</rwgt>
</event>
<event>
 4      1 +7.8865000e-07 1.10731400e+03 7.81860800e-03 8.58842000e-02
        2 -1    0    0  501    0 +0.0000000000e+00 +0.0000000000e+00 +6.2125998797e+02 6.2125998797e+02 0.0000000000e+00 0.0000e+00 1.0000e+00
       -2 -1    0    0    0  501 -0.0000000000e+00 -0.0000000000e+00 -4.9341038279e+02 4.9341038279e+02 0.0000000000e+00 0.0000e+00 -1.0000e+00
      -13  1    1    2    0    0 +1.3308567242e+02 -7.9444267406e+01 -4.7112572965e+02 4.9596637080e+02 0.0000000000e+00 0.0000e+00 -1.0000e+00
       13  1    1    2    0    0 -1.3308567242e+02 +7.9444267406e+01 +5.9897533484e+02 6.1870399996e+02 0.0000000000e+00 0.0000e+00 1.0000e+00
<mgrwt>
<rscale>  0 0.11073141E+04</rscale>
<asrwt>0</asrwt>
<pdfrwt beam="1">  1        2 0.95578459E-01 0.11073141E+04</pdfrwt>
<pdfrwt beam="2">  1       -2 0.75909290E-01 0.11073141E+04</pdfrwt>
<totfact> 0.91489401E+01</totfact>
</mgrwt>
<rwgt>
<wgt id='morphing_basis_vector_1'> +1.8166207e-04 </wgt>
<wgt id='morphing_basis_vector_2'> +1.1516683e-04 </wgt>
<wgt id='morphing_basis_vector_3'> +1.7906758e-04 </wgt>
<wgt id='morphing_basis_vector_4'> +1.1321712e-04 </wgt>
<wgt id='morphing_basis_vector_5'> +1.7953439e-04 </wgt>
</rwgt>
</event>
<event>
 4      1 +7.8865000e-07 1.25707000e+03 7.81860800e-03 8.47186900e-02
        2 -1    0    0  501    0 +0.0000000000e+00 +0.0000000000e+00 +4.0499860262e+03 4.0499860262e+03 0.0000000000e+00 0.0000e+00 -1.0000e+00
       -2 -1    0    0    0  501 -0.0000000000e+00 -0.0000000000e+00 -9.7545163929e+01 9.7545163929e+01 0.0000000000e+00 0.0000e+00 1.0000e+00
      -13  1    1    2    0    0 +4.9522877669e+01 -6.0920433223e+02 +1.4927302164e+03 1.6130176480e+03 0.0000000000e+00 0.0000e+00 1.0000e+00
       13  1    1    2    0    0 -4.9522877669e+01 +6.0920433223e+02 +2.4597106458e+03 2.5345135421e+03 0.0000000000e+00 0.0000e+00 -1.0000e+00
<mgrwt>
<rscale>  0 0.12570705E+04</rscale>
<asrwt>0</asrwt>
<pdfrwt beam="1">  1        2 0.62307464E+00 0.12570705E+04</pdfrwt>
<pdfrwt beam="2">  1       -2 0.15006951E-01 0.12570705E+04</pdfrwt>
<totfact> 0.11263786E+01</totfact>
</mgrwt>
<rwgt>
<wgt id='morphing_basis_vector_1'> +2.9762420e-04 </wgt>
<wgt id='morphing_basis_vector_2'> +2.0173817e-04 </wgt>
<wgt id='morphing_basis_vector_3'> +3.0144982e-04 </wgt>
<wgt id='morphing_basis_vector_4'> +1.8591869e-04 </wgt>
<wgt id='morphing_basis_vector_5'> +3.0694818e-04 </wgt>
</rwgt>
</event>
<event>
 4      1 +7.8865000e-07 1.21375200e+03 7.81860800e-03 8.50375000e-02
        2 -1    0    0  501    0 +0.0000000000e+00 +0.0000000000e+00 +6.8158297958e+02 6.8158297958e+02 0.0000000000e+00 0.0000e+00 -1.0000e+00
       -2 -1    0    0    0  501 -0.0000000000e+00 -0.0000000000e+00 -5.4035786760e+02 5.4035786760e+02 0.0000000000e+00 0.0000e+00 1.0000e+00
      -13  1    1    2    0    0 -2.8365788647e+02 +4.7170070428e+02 -1.8671972604e+02 5.8122939281e+02 0.0000000000e+00 0.0000e+00 1.0000e+00
       13  1    1    2    0    0 +2.8365788647e+02 -4.7170070428e+02 +3.2794483802e+02 6.4071145437e+02 0.0000000000e+00 0.0000e+00 -1.0000e+00
<mgrwt>
<rscale>  0 0.12137524E+04</rscale>
<asrwt>0</asrwt>
<pdfrwt beam="1">  1        2 0.10485892E+00 0.12137524E+04</pdfrwt>
<pdfrwt beam="2">  1       -2 0.83131980E-01 0.12137524E+04</pdfrwt>
<totfact> 0.66155811E+01</totfact>
</mgrwt>
<rwgt>
<wgt id='morphing_basis_vector_1'> +2.5839616e-04 </wgt>
<wgt id='morphing_basis_vector_2'> +1.6955536e-04 </wgt>
<wgt id='morphing_basis_vector_3'> +2.5968519e-04 </wgt>
<wgt id='morphing_basis_vector_4'> +1.6412541e-04 </wgt>
<wgt id='morphing_basis_vector_5'> +2.6499908e-04 </wgt>
</rwgt>
</event>
<event>
 4      1 +7.8865000e-07 1.24290700e+03 7.81860800e-03 8.48214300e-02
        2 -1    0    0  501    0 +0.0000000000e+00 +0.0000000000e+00 +6.2340834337e+02 6.2340834337e+02 0.0000000000e+00 0.0000e+00 -1.0000e+00
       -2 -1    0    0    0  501 -0.0000000000e+00 -0.0000000000e+00 -6.1950454974e+02 6.1950454974e+02 0.0000000000e+00 0.0000e+00 1.0000e+00
      -13  1    1    2    0    0 +4.9544522369e+02 -2.0414566172e+02 +3.1669601739e+02 6.2244500826e+02 0.0000000000e+00 0.0000e+00 1.0000e+00
       13  1    1    2    0    0 -4.9544522369e+02 +2.0414566172e+02 -3.1279222377e+02 6.2046788485e+02 0.0000000000e+00 0.0000e+00 -1.0000e+00
<mgrwt>
<rscale>  0 0.12429068E+04</rscale>
<asrwt>0</asrwt>
<pdfrwt beam="1">  1        2 0.95908976E-01 0.12429068E+04</pdfrwt>
<pdfrwt beam="2">  1       -2 0.95308392E-01 0.12429068E+04</pdfrwt>
<totfact> 0.53448891E+01</totfact>
</mgrwt>
<rwgt>
<wgt id='morphing_basis_vector_1'> +3.3296896e-04 </wgt>
<wgt id='morphing_basis_vector_2'> +3.3667566e-04 </wgt>
<wgt id='morphing_basis_vector_3'> +3.4388494e-04 </wgt>
<wgt id='morphing_basis_vector_4'> +9.3798808e-05 </wgt>
<wgt id='morphing_basis_vector_5'> +2.8687773e-04 </wgt>
</rwgt>
</event>
<event>
 4      1 +7.8865000e-07 1.23321300e+03 7.81860800e-03 8.48925700e-02
        2 -1    0    0  501    0 +0.0000000000e+00 +0.0000000000e+00 +4.3143865879e+02 4.3143865879e+02 0.0000000000e+00 0.0000e+00 -1.0000e+00
       -2 -1    0    0    0  501 -0.0000000000e+00 -0.0000000000e+00 -8.8124642766e+02 8.8124642766e+02 0.0000000000e+00 0.0000e+00 1.0000e+00
      -13  1    1    2    0    0 -7.2444482551e+01 -1.8792497707e+02 -8.4524649820e+02 8.6891060689e+02 0.0000000000e+00 0.0000e+00 1.0000e+00
       13  1    1    2    0    0 +7.2444482551e+01 +1.8792497707e+02 +3.9543872932e+02 4.4377447956e+02 0.0000000000e+00 0.0000e+00 -1.0000e+00
<mgrwt>
<rscale>  0 0.12332133E+04</rscale>
<asrwt>0</asrwt>
<pdfrwt beam="1">  1        2 0.66375179E-01 0.12332133E+04</pdfrwt>
<pdfrwt beam="2">  1       -2 0.13557637E+00 0.12332133E+04</pdfrwt>
<totfact> 0.33358165E+01</totfact>
</mgrwt>
<rwgt>
<wgt id='morphing_basis_vector_1'> +2.7268826e-04 </wgt>
<wgt id='morphing_basis_vector_2'> +1.7508675e-04 </wgt>
<wgt id='morphing_basis_vector_3'> +2.7460430e-04 </wgt>
<wgt id='morphing_basis_vector_4'> +1.7856666e-04 </wgt>
<wgt id='morphing_basis_vector_5'> +2.8362129e-04 </wgt>
</rwgt>
</event>
<event>
 4      1 +7.8865000e-07 1.12957900e+03 7.81860800e-03 8.56990500e-02
        2 -1    0    0  501    0 +0.0000000000e+00 +0.0000000000e+00 +7.1942659711e+02 7.1942659711e+02 0.0000000000e+00 0.0000e+00 1.0000e+00
       -2 -1    0    0    0  501 -0.0000000000e+00 -0.0000000000e+00 -4.4339121956e+02 4.4339121956e+02 0.0000000000e+00 0.0000e+00 -1.0000e+00
      -13  1    1    2    0    0 -2.5335217262e+02 +1.9760856739e+02 -3.4014013706e+02 4.6790146625e+02 0.0000000000e+00 0.0000e+00 -1.0000e+00
       13  1    1    2    0    0 +2.5335217262e+02 -1.9760856739e+02 +6.1617551461e+02 6.9491635042e+02 0.0000000000e+00 0.0000e+00 1.0000e+00
<mgrwt>
<rscale>  0 0.11295795E+04</rscale>
<asrwt>0</asrwt>
<pdfrwt beam="1">  1        2 0.11068102E+00 0.11295795E+04</pdfrwt>
<pdfrwt beam="2">  1       -2 0.68214034E-01 0.11295795E+04</pdfrwt>
<totfact> 0.96386330E+01</totfact>
</mgrwt>
<rwgt>
<wgt id='morphing_basis_vector_1'> +1.9582370e-04 </wgt>
<wgt id='morphing_basis_vector_2'> +1.2462356e-04 </wgt>
<wgt id='morphing_basis_vector_3'> +1.9385636e-04 </wgt>
<wgt id='morphing_basis_vector_4'> +1.2310236e-04 </wgt>
<wgt id='morphing_basis_vector_5'> +1.9545554e-04 </wgt>
</rwgt>
</event>
<event>
 4      1 +7.8865000e-07 1.13745100e+03 7.81860800e-03 8.56346400e-02
        2 -1    0    0  501    0 +0.0000000000e+00 +0.0000000000e+00 +1.4880985043e+03 1.4880985043e+03 0.0000000000e+00 0.0000e+00 1.0000e+00
       -2 -1    0    0    0  501 -0.0000000000e+00 -0.0000000000e+00 -2.1735708068e+02 2.1735708068e+02 0.0000000000e+00 0.0000e+00 -1.0000e+00
      -13  1    1    2    0    0 -3.0908214607e+02 +4.5722192486e+02 +4.2943243919e+02 6.9928240463e+02 0.0000000000e+00 0.0000e+00 -1.0000e+00
       13  1    1    2    0    0 +3.0908214607e+02 -4.5722192486e+02 +8.4130898447e+02 1.0061731804e+03 0.0000000000e+00 0.0000e+00 1.0000e+00
<mgrwt>
<rscale>  0 0.11374511E+04</rscale>
<asrwt>0</asrwt>
<pdfrwt beam="1">  1        2 0.22893823E+00 0.11374511E+04</pdfrwt>
<pdfrwt beam="2">  1       -2 0.33439552E-01 0.11374511E+04</pdfrwt>
<totfact> 0.12982196E+02</totfact>
</mgrwt>
<rwgt>
<wgt id='morphing_basis_vector_1'> +2.0380219e-04 </wgt>
<wgt id='morphing_basis_vector_2'> +1.3645725e-04 </wgt>
<wgt id='morphing_basis_vector_3'> +2.0229101e-04 </wgt>
<wgt id='morphing_basis_vector_4'> +1.2210918e-04 </wgt>
<wgt id='morphing_basis_vector_5'> +2.0101977e-04 </wgt>
</rwgt>
</event>
<event>
 4      1 +7.8865000e-07 1.22629100e+03 7.81860800e-03 8.49438000e-02
        2 -1    0    0  501    0 +0.0000000000e+00 +0.0000000000e+00 +2.6164243208e+03 2.6164243208e+03 0.0000000000e+00 0.0000e+00 1.0000e+00
       -2 -1    0    0    0  501 -0.0000000000e+00 -0.0000000000e+00 -1.4368754383e+02 1.4368754383e+02 0.0000000000e+00 0.0000e+00 -1.0000e+00
      -13  1    1    2    0    0 -4.8825989592e+02 +5.8533711664e+01 +4.1206754969e+02 6.4157897945e+02 0.0000000000e+00 0.0000e+00 -1.0000e+00
       13  1    1    2    0    0 +4.8825989592e+02 -5.8533711664e+01 +2.0606692273e+03 2.1185328852e+03 0.0000000000e+00 0.0000e+00 1.0000e+00
<mgrwt>
<rscale>  0 0.12262913E+04</rscale>
<asrwt>0</asrwt>
<pdfrwt beam="1">  1        2 0.40252679E+00 0.12262913E+04</pdfrwt>
<pdfrwt beam="2">  1       -2 0.22105778E-01 0.12262913E+04</pdfrwt>
<totfact> 0.60764597E+01</totfact>
</mgrwt>
<rwgt>
<wgt id='morphing_basis_vector_1'> +2.6759399e-04 </wgt>
<wgt id='morphing_basis_vector_2'> +1.7328263e-04 </wgt>
<wgt id='morphing_basis_vector_3'> +2.6929628e-04 </wgt>
<wgt id='morphing_basis_vector_4'> +1.7323207e-04 </wgt>
<wgt id='morphing_basis_vector_5'> +2.7688348e-04 </wgt>
</rwgt>
</event>
<event>
 4      1 +7.8865000e-07 1.14414100e+03 7.81860800e-03 8.55803300e-02
        2 -1    0    0  501    0 +0.0000000000e+00 +0.0000000000e+00 +1.3600583533e+03 1.3600583533e+03 0.0000000000e+00 0.0000e+00 -1.0000e+00
       -2 -1    0    0    0  501 -0.0000000000e+00 -0.0000000000e+00 -2.4062562219e+02 2.4062562219e+02 0.0000000000e+00 0.0000e+00 1.0000e+00
      -13  1    1    2    0    0 +5.5592980733e+02 -1.1682949840e+02 +4.6526597214e+02 7.3428843598e+02 0.0000000000e+00 0.0000e+00 1.0000e+00
       13  1    1    2    0    0 -5.5592980733e+02 +1.1682949840e+02 +6.5416675898e+02 8.6639553954e+02 0.0000000000e+00 0.0000e+00 -1.0000e+00
<mgrwt>
<rscale>  0 0.11441414E+04</rscale>
<asrwt>0</asrwt>
<pdfrwt beam="1">  1        2 0.20923974E+00 0.11441414E+04</pdfrwt>
<pdfrwt beam="2">  1       -2 0.37019327E-01 0.11441414E+04</pdfrwt>
<totfact> 0.12726090E+02</totfact>
</mgrwt>
<rwgt>
<wgt id='morphing_basis_vector_1'> +2.1018719e-04 </wgt>
<wgt id='morphing_basis_vector_2'> +1.4512758e-04 </wgt>
<wgt id='morphing_basis_vector_3'> +2.0906207e-04 </wgt>
<wgt id='morphing_basis_vector_4'> +1.2210273e-04 </wgt>
<wgt id='morphing_basis_vector_5'> +2.0589900e-04 </wgt>
</rwgt>
</event>
<event>
 4      1 +7.8865000e-07 1.08497100e+03 7.81860800e-03 8.60745700e-02
        2 -1    0    0  501    0 +0.0000000000e+00 +0.0000000000e+00 +7.1155368156e+02 7.1155368156e+02 0.0000000000e+00 0.0000e+00 -1.0000e+00
       -2 -1    0    0    0  501 -0.0000000000e+00 -0.0000000000e+00 -4.1358833787e+02 4.1358833787e+02 0.0000000000e+00 0.0000e+00 1.0000e+00
      -13  1    1    2    0    0 -2.7924706972e+02 -3.2035109826e+01 -3.3218494195e+02 4.3514596386e+02 0.0000000000e+00 0.0000e+00 1.0000e+00
       13  1    1    2    0    0 +2.7924706972e+02 +3.2035109826e+01 +6.3015028564e+02 6.8999605557e+02 0.0000000000e+00 0.0000e+00 -1.0000e+00
<mgrwt>
<rscale>  0 0.10849706E+04</rscale>
<asrwt>0</asrwt>
<pdfrwt beam="1">  1        2 0.10946980E+00 0.10849706E+04</pdfrwt>
<pdfrwt beam="2">  1       -2 0.63628975E-01 0.10849706E+04</pdfrwt>
<totfact> 0.11345264E+02</totfact>
</mgrwt>
<rwgt>
<wgt id='morphing_basis_vector_1'> +1.6835506e-04 </wgt>
<wgt id='morphing_basis_vector_2'> +1.0654032e-04 </wgt>
<wgt id='morphing_basis_vector_3'> +1.6520535e-04 </wgt>
<wgt id='morphing_basis_vector_4'> +1.0373141e-04 </wgt>
<wgt id='morphing_basis_vector_5'> +1.6452471e-04 </wgt>
</rwgt>
</event>
<event>
 4      1 +7.8865000e-07 1.07860600e+03 7.81860800e-03 8.61296600e-02
        2 -1    0    0  501    0 +0.0000000000e+00 +0.0000000000e+00 +4.9083747977e+02 4.9083747977e+02 0.0000000000e+00 0.0000e+00 -1.0000e+00
       -2 -1    0    0    0  501 -0.0000000000e+00 -0.0000000000e+00 -5.9255349122e+02 5.9255349122e+02 0.0000000000e+00 0.0000e+00 1.0000e+00
      -13  1    1    2    0    0 -6.3026101463e+01 +3.8725746310e+02 -4.2250885902e+02 5.7658856053e+02 0.0000000000e+00 0.0000e+00 1.0000e+00
       13  1    1    2    0    0 +6.3026101463e+01 -3.8725746310e+02 +3.2079284757e+02 5.0680241046e+02 0.0000000000e+00 0.0000e+00 -1.0000e+00
<mgrwt>
<rscale>  0 0.10786055E+04</rscale>
<asrwt>0</asrwt>
<pdfrwt beam="1">  1        2 0.75513458E-01 0.10786055E+04</pdfrwt>
<pdfrwt beam="2">  1       -2 0.91162076E-01 0.10786055E+04</pdfrwt>
<totfact> 0.79314584E+01</totfact>
</mgrwt>
<rwgt>
<wgt id='morphing_basis_vector_1'> +1.6488046e-04 </wgt>
<wgt id='morphing_basis_vector_2'> +1.0470537e-04 </wgt>
<wgt id='morphing_basis_vector_3'> +1.6158783e-04 </wgt>
<wgt id='morphing_basis_vector_4'> +1.0085514e-04 </wgt>
<wgt id='morphing_basis_vector_5'> +1.6040479e-04 </wgt>
</rwgt>
</event>
<event>
 4      1 +7.8865000e-07 1.08567800e+03 7.81860800e-03 8.60684600e-02
        2 -1    0    0  501    0 +0.0000000000e+00 +0.0000000000e+00 +1.5300405336e+03 1.5300405336e+03 0.0000000000e+00 0.0000e+00 -1.0000e+00
       -2 -1    0    0    0  501 -0.0000000000e+00 -0.0000000000e+00 -1.9259246916e+02 1.9259246916e+02 0.0000000000e+00 0.0000e+00 1.0000e+00
      -13  1    1    2    0    0 +2.3017550491e+02 -2.4198423181e+02 -1.0291764584e+01 3.3413029184e+02 0.0000000000e+00 0.0000e+00 1.0000e+00
       13  1    1    2    0    0 -2.3017550491e+02 +2.4198423181e+02 +1.3477398290e+03 1.3885027109e+03 0.0000000000e+00 0.0000e+00 -1.0000e+00
<mgrwt>
<rscale>  0 0.10856782E+04</rscale>
<asrwt>0</asrwt>
<pdfrwt beam="1">  1        2 0.23539084E+00 0.10856782E+04</pdfrwt>
<pdfrwt beam="2">  1       -2 0.29629612E-01 0.10856782E+04</pdfrwt>
<totfact> 0.15323268E+02</totfact>
</mgrwt>
<rwgt>
<wgt id='morphing_basis_vector_1'> +1.6881897e-04 </wgt>
<wgt id='morphing_basis_vector_2'> +1.0696960e-04 </wgt>
<wgt id='morphing_basis_vector_3'> +1.6568737e-04 </wgt>
<wgt id='morphing_basis_vector_4'> +1.0393406e-04 </wgt>
<wgt id='morphing_basis_vector_5'> +1.6497977e-04 </wgt>
</rwgt>
</event>
<event>
 4      1 +7.8865000e-07 1.19924000e+03 7.81860800e-03 8.51474600e-02
        2 -1    0    0  501    0 +0.0000000000e+00 +0.0000000000e+00 +7.6830386215e+02 7.6830386215e+02 0.0000000000e+00 0.0000e+00 -1.0000e+00
       -2 -1    0    0    0  501 -0.0000000000e+00 -0.0000000000e+00 -4.6797096586e+02 4.6797096586e+02 0.0000000000e+00 0.0000e+00 1.0000e+00
      -13  1    1    2    0    0 -1.1661864786e+02 +3.1332490713e+02 -3.6297221446e+02 4.9347870767e+02 0.0000000000e+00 0.0000e+00 1.0000e+00
       13  1    1    2    0    0 +1.1661864786e+02 -3.1332490713e+02 +6.6330511074e+02 7.4279612034e+02 0.0000000000e+00 0.0000e+00 -1.0000e+00
<mgrwt>
<rscale>  0 0.11992396E+04</rscale>
<asrwt>0</asrwt>
<pdfrwt beam="1">  1        2 0.11820059E+00 0.11992396E+04</pdfrwt>
<pdfrwt beam="2">  1       -2 0.71995533E-01 0.11992396E+04</pdfrwt>
<totfact> 0.78678714E+01</totfact>
</mgrwt>
<rwgt>
<wgt id='morphing_basis_vector_1'> +2.4537882e-04 </wgt>
<wgt id='morphing_basis_vector_2'> +1.5724750e-04 </wgt>
<wgt id='morphing_basis_vector_3'> +2.4583861e-04 </wgt>
<wgt id='morphing_basis_vector_4'> +1.5860766e-04 </wgt>
<wgt id='morphing_basis_vector_5'> +2.5203068e-04 </wgt>
</rwgt>
</event>
<event>
 4      1 +7.8865000e-07 1.11211700e+03 7.81860800e-03 8.58438800e-02
        2 -1    0    0  501    0 +0.0000000000e+00 +0.0000000000e+00 +3.5797060710e+02 3.5797060710e+02 0.0000000000e+00 0.0000e+00 -1.0000e+00
       -2 -1    0    0    0  501 -0.0000000000e+00 -0.0000000000e+00 -8.6376158115e+02 8.6376158115e+02 0.0000000000e+00 0.0000e+00 1.0000e+00
      -13  1    1    2    0    0 +3.4305234239e+02 +7.1992565832e+01 -7.2710555515e+02 8.0718667450e+02 0.0000000000e+00 0.0000e+00 1.0000e+00
       13  1    1    2    0    0 -3.4305234239e+02 -7.1992565832e+01 +2.2131458110e+02 4.1454551374e+02 0.0000000000e+00 0.0000e+00 -1.0000e+00
<mgrwt>
<rscale>  0 0.11121174E+04</rscale>
<asrwt>0</asrwt>
<pdfrwt beam="1">  1        2 0.55072402E-01 0.11121174E+04</pdfrwt>
<pdfrwt beam="2">  1       -2 0.13288640E+00 0.11121174E+04</pdfrwt>
<totfact> 0.43915062E+01</totfact>
</mgrwt>
<rwgt>
<wgt id='morphing_basis_vector_1'> +1.8474731e-04 </wgt>
<wgt id='morphing_basis_vector_2'> +1.1745703e-04 </wgt>
<wgt id='morphing_basis_vector_3'> +1.8228734e-04 </wgt>
<wgt id='morphing_basis_vector_4'> +1.1513530e-04 </wgt>
<wgt id='morphing_basis_vector_5'> +1.8287480e-04 </wgt>
</rwgt>
</event>
<event>
 4      1 +7.8865000e-07 1.12323300e+03 7.81860800e-03 8.57513700e-02
        2 -1    0    0  501    0 +0.0000000000e+00 +0.0000000000e+00 +2.5084795538e+03 2.5084795538e+03 0.0000000000e+00 0.0000e+00 -1.0000e+00
       -2 -1    0    0    0  501 -0.0000000000e+00 -0.0000000000e+00 -1.2573881998e+02 1.2573881998e+02 0.0000000000e+00 0.0000e+00 1.0000e+00
      -13  1    1    2    0    0 +4.9468035353e+02 +2.6509844774e+02 +1.1428851702e+03 1.2732526660e+03 0.0000000000e+00 0.0000e+00 1.0000e+00
       13  1    1    2    0    0 -4.9468035353e+02 -2.6509844774e+02 +1.2398555636e+03 1.3609657078e+03 0.0000000000e+00 0.0000e+00 -1.0000e+00
<mgrwt>
<rscale>  0 0.11232333E+04</rscale>
<asrwt>0</asrwt>
<pdfrwt beam="1">  1        2 0.38591989E+00 0.11232333E+04</pdfrwt>
<pdfrwt beam="2">  1       -2 0.19344436E-01 0.11232333E+04</pdfrwt>
<totfact> 0.89036188E+01</totfact>
</mgrwt>
<rwgt>
<wgt id='morphing_basis_vector_1'> +1.9768163e-04 </wgt>
<wgt id='morphing_basis_vector_2'> +1.3987548e-04 </wgt>
<wgt id='morphing_basis_vector_3'> +1.9591595e-04 </wgt>
<wgt id='morphing_basis_vector_4'> +1.1030421e-04 </wgt>
<wgt id='morphing_basis_vector_5'> +1.9016917e-04 </wgt>
</rwgt>
</event>
<event>
 4      1 +7.8865000e-07 1.11802800e+03 7.81860800e-03 8.57945600e-02
        2 -1    0    0  501    0 +0.0000000000e+00 +0.0000000000e+00 +1.8134669528e+03 1.8134669528e+03 0.0000000000e+00 0.0000e+00 -1.0000e+00
       -2 -1    0    0    0  501 -0.0000000000e+00 -0.0000000000e+00 -1.7231987611e+02 1.7231987611e+02 0.0000000000e+00 0.0000e+00 1.0000e+00
      -13  1    1    2    0    0 -5.0108753012e+02 +9.1170069929e+01 +4.1130362361e+02 6.5465362237e+02 0.0000000000e+00 0.0000e+00 1.0000e+00
       13  1    1    2    0    0 +5.0108753012e+02 -9.1170069929e+01 +1.2298434531e+03 1.3311332066e+03 0.0000000000e+00 0.0000e+00 -1.0000e+00
<mgrwt>
<rscale>  0 0.11180276E+04</rscale>
<asrwt>0</asrwt>
<pdfrwt beam="1">  1        2 0.27899490E+00 0.11180276E+04</pdfrwt>
<pdfrwt beam="2">  1       -2 0.26510751E-01 0.11180276E+04</pdfrwt>
<totfact> 0.12939820E+02</totfact>
</mgrwt>
<rwgt>
<wgt id='morphing_basis_vector_1'> +1.8961513e-04 </wgt>
<wgt id='morphing_basis_vector_2'> +1.2338393e-04 </wgt>
<wgt id='morphing_basis_vector_3'> +1.8738767e-04 </wgt>
<wgt id='morphing_basis_vector_4'> +1.1584450e-04 </wgt>
<wgt id='morphing_basis_vector_5'> +1.8693777e-04 </wgt>
</rwgt>
</event>
<event>
 4      1 +7.8865000e-07 1.11909700e+03 7.81860800e-03 8.57856700e-02
        2 -1    0    0  501    0 +0.0000000000e+00 +0.0000000000e+00 +2.1280316224e+03 2.1280316224e+03 0.0000000000e+00 0.0000e+00 -1.0000e+00
       -2 -1    0    0    0  501 -0.0000000000e+00 -0.0000000000e+00 -1.4712867512e+02 1.4712867512e+02 0.0000000000e+00 0.0000e+00 1.0000e+00
      -13  1    1    2    0    0 -4.2765110672e+02 +2.6453840877e+02 +4.9151518607e+02 7.0317367480e+02 0.0000000000e+00 0.0000e+00 1.0000e+00
       13  1    1    2    0    0 +4.2765110672e+02 -2.6453840877e+02 +1.4893877612e+03 1.5719866227e+03 0.0000000000e+00 0.0000e+00 -1.0000e+00
<mgrwt>
<rscale>  0 0.11190969E+04</rscale>
<asrwt>0</asrwt>
<pdfrwt beam="1">  1        2 0.32738946E+00 0.11190969E+04</pdfrwt>
<pdfrwt beam="2">  1       -2 0.22635182E-01 0.11190969E+04</pdfrwt>
<totfact> 0.11328887E+02</totfact>
</mgrwt>
<rwgt>
<wgt id='morphing_basis_vector_1'> +1.9014418e-04 </wgt>
<wgt id='morphing_basis_vector_2'> +1.2338242e-04 </wgt>
<wgt id='morphing_basis_vector_3'> +1.8793890e-04 </wgt>
<wgt id='morphing_basis_vector_4'> +1.1656875e-04 </wgt>
<wgt id='morphing_basis_vector_5'> +1.8771874e-04 </wgt>
</rwgt>
</event>
<event>
 4      1 +7.8865000e-07 1.10244000e+03 7.81860800e-03 8.59253300e-02
        2 -1    0    0  501    0 +0.0000000000e+00 +0.0000000000e+00 +3.8089694944e+02 3.8089694944e+02 0.0000000000e+00 0.0000e+00 -1.0000e+00
       -2 -1    0    0    0  501 -0.0000000000e+00 -0.0000000000e+00 -7.9770551135e+02 7.9770551135e+02 0.0000000000e+00 0.0000e+00 1.0000e+00
      -13  1    1    2    0    0 -3.1471015051e+02 +4.0333870581e+02 -4.2781172483e+02 6.6689389136e+02 0.0000000000e+00 0.0000e+00 1.0000e+00
       13  1    1    2    0    0 +3.1471015051e+02 -4.0333870581e+02 +1.1003162910e+01 5.1170856943e+02 0.0000000000e+00 0.0000e+00 -1.0000e+00
<mgrwt>
<rscale>  0 0.11024402E+04</rscale>
<asrwt>0</asrwt>
<pdfrwt beam="1">  1        2 0.58599531E-01 0.11024402E+04</pdfrwt>
<pdfrwt beam="2">  1       -2 0.12272392E+00 0.11024402E+04</pdfrwt>
<totfact> 0.50603299E+01</totfact>
</mgrwt>
<rwgt>
<wgt id='morphing_basis_vector_1'> +1.8013733e-04 </wgt>
<wgt id='morphing_basis_vector_2'> +1.1759568e-04 </wgt>
<wgt id='morphing_basis_vector_3'> +1.7748082e-04 </wgt>
<wgt id='morphing_basis_vector_4'> +1.0872346e-04 </wgt>
<wgt id='morphing_basis_vector_5'> +1.7602513e-04 </wgt>
</rwgt>
</event>
<event>
 4      1 +7.8865000e-07 1.13074700e+03 7.81860800e-03 8.56894600e-02
        2 -1    0    0  501    0 +0.0000000000e+00 +0.0000000000e+00 +7.3492773090e+02 7.3492773090e+02 0.0000000000e+00 0.0000e+00 -1.0000e+00
       -2 -1    0    0    0  501 -0.0000000000e+00 -0.0000000000e+00 -4.3493669986e+02 4.3493669986e+02 0.0000000000e+00 0.0000e+00 1.0000e+00
      -13  1    1    2    0    0 -3.6258249909e+02 +3.8586161586e+02 -5.5083434297e+01 5.3234334783e+02 0.0000000000e+00 0.0000e+00 1.0000e+00
       13  1    1    2    0    0 +3.6258249909e+02 -3.8586161586e+02 +3.5507446534e+02 6.3752108293e+02 0.0000000000e+00 0.0000e+00 -1.0000e+00
<mgrwt>
<rscale>  0 0.11307467E+04</rscale>
<asrwt>0</asrwt>
<pdfrwt beam="1">  1        2 0.11306580E+00 0.11307467E+04</pdfrwt>
<pdfrwt beam="2">  1       -2 0.66913338E-01 0.11307467E+04</pdfrwt>
<totfact> 0.97768023E+01</totfact>
</mgrwt>
<rwgt>
<wgt id='morphing_basis_vector_1'> +1.9827854e-04 </wgt>
<wgt id='morphing_basis_vector_2'> +1.3022344e-04 </wgt>
<wgt id='morphing_basis_vector_3'> +1.9646766e-04 </wgt>
<wgt id='morphing_basis_vector_4'> +1.2082360e-04 </wgt>
<wgt id='morphing_basis_vector_5'> +1.9613347e-04 </wgt>
</rwgt>
</event>
<event>
 4      1 +7.8865000e-07 1.12463400e+03 7.81860800e-03 8.57397900e-02
        2 -1    0    0  501    0 +0.0000000000e+00 +0.0000000000e+00 +5.8084361908e+02 5.8084361908e+02 0.0000000000e+00 0.0000e+00 1.0000e+00
       -2 -1    0    0    0  501 -0.0000000000e+00 -0.0000000000e+00 -5.4438121927e+02 5.4438121927e+02 0.0000000000e+00 0.0000e+00 -1.0000e+00
      -13  1    1    2    0    0 -5.4393013862e+02 -1.4243745933e+02 +1.1021024828e+01 5.6237877672e+02 0.0000000000e+00 0.0000e+00 -1.0000e+00
       13  1    1    2    0    0 +5.4393013862e+02 +1.4243745933e+02 +2.5441374983e+01 5.6284606162e+02 0.0000000000e+00 0.0000e+00 1.0000e+00
<mgrwt>
<rscale>  0 0.11246339E+04</rscale>
<asrwt>0</asrwt>
<pdfrwt beam="1">  1        2 0.89360557E-01 0.11246339E+04</pdfrwt>
<pdfrwt beam="2">  1       -2 0.83750957E-01 0.11246339E+04</pdfrwt>
<totfact> 0.79233535E+01</totfact>
</mgrwt>
<rwgt>
<wgt id='morphing_basis_vector_1'> +1.9916291e-04 </wgt>
<wgt id='morphing_basis_vector_2'> +1.4221855e-04 </wgt>
<wgt id='morphing_basis_vector_3'> +1.9748397e-04 </wgt>
<wgt id='morphing_basis_vector_4'> +1.0996934e-04 </wgt>
<wgt id='morphing_basis_vector_5'> +1.9112247e-04 </wgt>
</rwgt>
</event>
<event>
 4      1 +7.8865000e-07 1.25349900e+03 7.81860800e-03 8.47444600e-02
        2 -1    0    0  501    0 +0.0000000000e+00 +0.0000000000e+00 +9.4341418388e+02 9.4341418388e+02 0.0000000000e+00 0.0000e+00 1.0000e+00
       -2 -1    0    0    0  501 -0.0000000000e+00 -0.0000000000e+00 -4.1637566375e+02 4.1637566375e+02 0.0000000000e+00 0.0000e+00 -1.0000e+00
      -13  1    1    2    0    0 -4.3975192952e+02 +7.7943026322e+00 -2.2085407334e+02 4.9215752802e+02 0.0000000000e+00 0.0000e+00 -1.0000e+00
       13  1    1    2    0    0 +4.3975192952e+02 -7.7943026322e+00 +7.4789259347e+02 8.6763231961e+02 0.0000000000e+00 0.0000e+00 1.0000e+00
<mgrwt>
<rscale>  0 0.12534986E+04</rscale>
<asrwt>0</asrwt>
<pdfrwt beam="1">  1        2 0.14514064E+00 0.12534986E+04</pdfrwt>
<pdfrwt beam="2">  1       -2 0.64057795E-01 0.12534986E+04</pdfrwt>
<totfact> 0.76529528E+01</totfact>
</mgrwt>
<rwgt>
<wgt id='morphing_basis_vector_1'> +2.9043469e-04 </wgt>
<wgt id='morphing_basis_vector_2'> +1.8755455e-04 </wgt>
<wgt id='morphing_basis_vector_3'> +2.9337746e-04 </wgt>
<wgt id='morphing_basis_vector_4'> +1.9068818e-04 </wgt>
<wgt id='morphing_basis_vector_5'> +3.0377641e-04 </wgt>
</rwgt>
</event>
<event>
 4      1 +7.8865000e-07 1.07698600e+03 7.81860800e-03 8.61437400e-02
        2 -1    0    0  501    0 +0.0000000000e+00 +0.0000000000e+00 +1.6515972122e+03 1.6515972122e+03 0.0000000000e+00 0.0000e+00 1.0000e+00
       -2 -1    0    0    0  501 -0.0000000000e+00 -0.0000000000e+00 -1.7557228281e+02 1.7557228281e+02 0.0000000000e+00 0.0000e+00 -1.0000e+00
      -13  1    1    2    0    0 -3.2151247501e+02 +9.7773454457e+01 +2.4156904992e+01 3.3691761017e+02 0.0000000000e+00 0.0000e+00 -1.0000e+00
       13  1    1    2    0    0 +3.2151247501e+02 -9.7773454457e+01 +1.4518680244e+03 1.4902518849e+03 0.0000000000e+00 0.0000e+00 1.0000e+00
<mgrwt>
<rscale>  0 0.10769860E+04</rscale>
<asrwt>0</asrwt>
<pdfrwt beam="1">  1        2 0.25409187E+00 0.10769860E+04</pdfrwt>
<pdfrwt beam="2">  1       -2 0.27011122E-01 0.10769860E+04</pdfrwt>
<totfact> 0.15441763E+02</totfact>
</mgrwt>
<rwgt>
<wgt id='morphing_basis_vector_1'> +1.6383072e-04 </wgt>
<wgt id='morphing_basis_vector_2'> +1.0371557e-04 </wgt>
<wgt id='morphing_basis_vector_3'> +1.6049887e-04 </wgt>
<wgt id='morphing_basis_vector_4'> +1.0041553e-04 </wgt>
<wgt id='morphing_basis_vector_5'> +1.5938665e-04 </wgt>
</rwgt>
</event>
<event>
 4      1 +7.8865000e-07 1.09917000e+03 7.81860800e-03 8.59530400e-02
        2 -1    0    0  501    0 +0.0000000000e+00 +0.0000000000e+00 +5.8725864142e+02 5.8725864142e+02 0.0000000000e+00 0.0000e+00 -1.0000e+00
       -2 -1    0    0    0  501 -0.0000000000e+00 -0.0000000000e+00 -5.1432862955e+02 5.1432862955e+02 0.0000000000e+00 0.0000e+00 1.0000e+00
      -13  1    1    2    0    0 -1.4765043225e+02 +3.6423101928e+02 -3.4853984878e+02 5.2530458949e+02 0.0000000000e+00 0.0000e+00 1.0000e+00
       13  1    1    2    0    0 +1.4765043225e+02 -3.6423101928e+02 +4.2146986065e+02 5.7628268149e+02 0.0000000000e+00 0.0000e+00 -1.0000e+00
<mgrwt>
<rscale>  0 0.10991705E+04</rscale>
<asrwt>0</asrwt>
<pdfrwt beam="1">  1        2 0.90347484E-01 0.10991705E+04</pdfrwt>
<pdfrwt beam="2">  1       -2 0.79127481E-01 0.10991705E+04</pdfrwt>
<totfact> 0.89162699E+01</totfact>
</mgrwt>
<rwgt>
<wgt id='morphing_basis_vector_1'> +1.7692478e-04 </wgt>
<wgt id='morphing_basis_vector_2'> +1.1257496e-04 </wgt>
<wgt id='morphing_basis_vector_3'> +1.7412885e-04 </wgt>
<wgt id='morphing_basis_vector_4'> +1.0935626e-04 </wgt>
<wgt id='morphing_basis_vector_5'> +1.7393082e-04 </wgt>
</rwgt>
</event>
<event>
 4      1 +7.8865000e-07 1.12902300e+03 7.81860800e-03 8.57036200e-02
        2 -1    0    0  501    0 +0.0000000000e+00 +0.0000000000e+00 +1.3105932494e+03 1.3105932494e+03 0.0000000000e+00 0.0000e+00 -1.0000e+00
       -2 -1    0    0    0  501 -0.0000000000e+00 -0.0000000000e+00 -2.4315176682e+02 2.4315176682e+02 0.0000000000e+00 0.0000e+00 1.0000e+00
      -13  1    1    2    0    0 +1.1293152595e+02 -4.6917288997e+02 +1.3062200165e+02 4.9993883381e+02 0.0000000000e+00 0.0000e+00 1.0000e+00
       13  1    1    2    0    0 -1.1293152595e+02 +4.6917288997e+02 +9.3681948093e+02 1.0538061824e+03 0.0000000000e+00 0.0000e+00 -1.0000e+00
<mgrwt>
<rscale>  0 0.11290227E+04</rscale>
<asrwt>0</asrwt>
<pdfrwt beam="1">  1        2 0.20162973E+00 0.11290227E+04</pdfrwt>
<pdfrwt beam="2">  1       -2 0.37407965E-01 0.11290227E+04</pdfrwt>
<totfact> 0.13333005E+02</totfact>
</mgrwt>
<rwgt>
<wgt id='morphing_basis_vector_1'> +1.9616092e-04 </wgt>
<wgt id='morphing_basis_vector_2'> +1.2649219e-04 </wgt>
<wgt id='morphing_basis_vector_3'> +1.9422633e-04 </wgt>
<wgt id='morphing_basis_vector_4'> +1.2168077e-04 </wgt>
<wgt id='morphing_basis_vector_5'> +1.9496887e-04 </wgt>
</rwgt>
</event>
<event>
 4      1 +7.8865000e-07 1.13449300e+03 7.81860800e-03 8.56587800e-02
        2 -1    0    0  501    0 +0.0000000000e+00 +0.0000000000e+00 +5.7184013728e+02 5.7184013728e+02 0.0000000000e+00 0.0000e+00 -1.0000e+00
       -2 -1    0    0    0  501 -0.0000000000e+00 -0.0000000000e+00 -5.6268958044e+02 5.6268958044e+02 0.0000000000e+00 0.0000e+00 1.0000e+00
      -13  1    1    2    0    0 +3.2709548897e+02 +4.3747153577e+02 -1.4838617246e+02 5.6603114728e+02 0.0000000000e+00 0.0000e+00 1.0000e+00
       13  1    1    2    0    0 -3.2709548897e+02 -4.3747153577e+02 +1.5753672930e+02 5.6849857044e+02 0.0000000000e+00 0.0000e+00 -1.0000e+00
<mgrwt>
<rscale>  0 0.11344928E+04</rscale>
<asrwt>0</asrwt>
<pdfrwt beam="1">  1        2 0.87975406E-01 0.11344928E+04</pdfrwt>
<pdfrwt beam="2">  1       -2 0.86567628E-01 0.11344928E+04</pdfrwt>
<totfact> 0.74717459E+01</totfact>
</mgrwt>
<rwgt>
<wgt id='morphing_basis_vector_1'> +2.0150427e-04 </wgt>
<wgt id='morphing_basis_vector_2'> +1.3414808e-04 </wgt>
<wgt id='morphing_basis_vector_3'> +1.9986959e-04 </wgt>
<wgt id='morphing_basis_vector_4'> +1.2128821e-04 </wgt>
<wgt id='morphing_basis_vector_5'> +1.9883620e-04 </wgt>
</rwgt>
</event>
<event>
 4      1 +7.8865000e-07 1.17239300e+03 7.81860800e-03 8.53552400e-02
        2 -1    0    0  501    0 +0.0000000000e+00 +0.0000000000e+00 +2.3353977987e+03 2.3353977987e+03 0.0000000000e+00 0.0000e+00 -1.0000e+00
       -2 -1    0    0    0  501 -0.0000000000e+00 -0.0000000000e+00 -1.4713820770e+02 1.4713820770e+02 0.0000000000e+00 0.0000e+00 1.0000e+00
      -13  1    1    2    0    0 +1.2771113731e+02 +3.2680920855e+02 +9.9781884199e+01 3.6478873037e+02 0.0000000000e+00 0.0000e+00 1.0000e+00
       13  1    1    2    0    0 -1.2771113731e+02 -3.2680920855e+02 +2.0884777068e+03 2.1177472760e+03 0.0000000000e+00 0.0000e+00 -1.0000e+00
<mgrwt>
<rscale>  0 0.11723928E+04</rscale>
<asrwt>0</asrwt>
<pdfrwt beam="1">  1        2 0.35929194E+00 0.11723928E+04</pdfrwt>
<pdfrwt beam="2">  1       -2 0.22636649E-01 0.11723928E+04</pdfrwt>
<totfact> 0.85884558E+01</totfact>
</mgrwt>
<rwgt>
<wgt id='morphing_basis_vector_1'> +2.2529295e-04 </wgt>
<wgt id='morphing_basis_vector_2'> +1.4407733e-04 </wgt>
<wgt id='morphing_basis_vector_3'> +2.2473120e-04 </wgt>
<wgt id='morphing_basis_vector_4'> +1.4408595e-04 </wgt>
<wgt id='morphing_basis_vector_5'> +2.2896649e-04 </wgt>
</rwgt>
</event>
<event>
 4      1 +7.8865000e-07 1.16767400e+03 7.81860800e-03 8.53923700e-02
        2 -1    0    0  501    0 +0.0000000000e+00 +0.0000000000e+00 +5.9970263679e+02 5.9970263679e+02 0.0000000000e+00 0.0000e+00 -1.0000e+00
       -2 -1    0    0    0  501 -0.0000000000e+00 -0.0000000000e+00 -5.6839146953e+02 5.6839146953e+02 0.0000000000e+00 0.0000e+00 1.0000e+00
      -13  1    1    2    0    0 +3.0139944567e+02 +4.9471132081e+02 -5.7068183618e+01 5.8209766738e+02 0.0000000000e+00 0.0000e+00 1.0000e+00
       13  1    1    2    0    0 -3.0139944567e+02 -4.9471132081e+02 +8.8379350880e+01 5.8599643894e+02 0.0000000000e+00 0.0000e+00 -1.0000e+00
<mgrwt>
<rscale>  0 0.11676744E+04</rscale>
<asrwt>0</asrwt>
<pdfrwt beam="1">  1        2 0.92261944E-01 0.11676744E+04</pdfrwt>
<pdfrwt beam="2">  1       -2 0.87444841E-01 0.11676744E+04</pdfrwt>
<totfact> 0.68857861E+01</totfact>
</mgrwt>
<rwgt>
<wgt id='morphing_basis_vector_1'> +2.2682187e-04 </wgt>
<wgt id='morphing_basis_vector_2'> +1.5666258e-04 </wgt>
<wgt id='morphing_basis_vector_3'> +2.2660875e-04 </wgt>
<wgt id='morphing_basis_vector_4'> +1.3330037e-04 </wgt>
<wgt id='morphing_basis_vector_5'> +2.2452238e-04 </wgt>
</rwgt>
</event>
<event>
 4      1 +7.8865000e-07 1.17596700e+03 7.81860800e-03 8.53272500e-02
        2 -1    0    0  501    0 +0.0000000000e+00 +0.0000000000e+00 +1.4776536719e+03 1.4776536719e+03 0.0000000000e+00 0.0000e+00 1.0000e+00
       -2 -1    0    0    0  501 -0.0000000000e+00 -0.0000000000e+00 -2.3396858142e+02 2.3396858142e+02 0.0000000000e+00 0.0000e+00 -1.0000e+00
      -13  1    1    2    0    0 +4.9051673195e+02 -1.8721835543e+02 +2.3656821376e+02 5.7586621423e+02 0.0000000000e+00 0.0000e+00 1.0000e+00
       13  1    1    2    0    0 -4.9051673195e+02 +1.8721835543e+02 +1.0071168767e+03 1.1357560390e+03 0.0000000000e+00 0.0000e+00 -1.0000e+00
<mgrwt>
<rscale>  0 0.11759669E+04</rscale>
<asrwt>0</asrwt>
<pdfrwt beam="1">  1        2 0.22733133E+00 0.11759669E+04</pdfrwt>
<pdfrwt beam="2">  1       -2 0.35995167E-01 0.11759669E+04</pdfrwt>
<totfact> 0.11478823E+02</totfact>
</mgrwt>
<rwgt>
<wgt id='morphing_basis_vector_1'> +2.2907352e-04 </wgt>
<wgt id='morphing_basis_vector_2'> +1.4933353e-04 </wgt>
<wgt id='morphing_basis_vector_3'> +2.2877344e-04 </wgt>
<wgt id='morphing_basis_vector_4'> +1.4395209e-04 </wgt>
<wgt id='morphing_basis_vector_5'> +2.3180883e-04 </wgt>
</rwgt>
</event>
<event>
 4      1 +7.8865000e-07 1.13686700e+03 7.81860800e-03 8.56394000e-02
        2 -1    0    0  501    0 +0.0000000000e+00 +0.0000000000e+00 +1.8571017006e+03 1.8571017006e+03 0.0000000000e+00 0.0000e+00 1.0000e+00
       -2 -1    0    0    0  501 -0.0000000000e+00 -0.0000000000e+00 -1.7398971755e+02 1.7398971755e+02 0.0000000000e+00 0.0000e+00 -1.0000e+00
      -13  1    1    2    0    0 -6.9082828031e+01 -5.5022910881e+02 +6.1847014332e+02 8.3068034014e+02 0.0000000000e+00 0.0000e+00 1.0000e+00
       13  1    1    2    0    0 +6.9082828031e+01 +5.5022910881e+02 +1.0646418397e+03 1.2004110780e+03 0.0000000000e+00 0.0000e+00 -1.0000e+00
<mgrwt>
<rscale>  0 0.11368669E+04</rscale>
<asrwt>0</asrwt>
<pdfrwt beam="1">  1        2 0.28570794E+00 0.11368669E+04</pdfrwt>
<pdfrwt beam="2">  1       -2 0.26767650E-01 0.11368669E+04</pdfrwt>
<totfact> 0.12017988E+02</totfact>
</mgrwt>
<rwgt>
<wgt id='morphing_basis_vector_1'> +2.0367440e-04 </wgt>
<wgt id='morphing_basis_vector_2'> +1.3698539e-04 </wgt>
<wgt id='morphing_basis_vector_3'> +2.0216397e-04 </wgt>
<wgt id='morphing_basis_vector_4'> +1.2139994e-04 </wgt>
<wgt id='morphing_basis_vector_5'> +2.0055125e-04 </wgt>
</rwgt>
</event>
<event>
 4      1 +7.8865000e-07 1.13349200e+03 7.81860800e-03 8.56669700e-02
        2 -1    0    0  501    0 +0.0000000000e+00 +0.0000000000e+00 +7.1758923341e+02 7.1758923341e+02 0.0000000000e+00 0.0000e+00 -1.0000e+00
       -2 -1    0    0    0  501 -0.0000000000e+00 -0.0000000000e+00 -4.4761107360e+02 4.4761107360e+02 0.0000000000e+00 0.0000e+00 1.0000e+00
      -13  1    1    2    0    0 +3.5793899466e+02 +4.1465780602e+02 -1.4472388583e+01 5.4796977108e+02 0.0000000000e+00 0.0000e+00 1.0000e+00
       13  1    1    2    0    0 -3.5793899466e+02 -4.1465780602e+02 +2.8445054840e+02 6.1723053592e+02 0.0000000000e+00 0.0000e+00 -1.0000e+00
<mgrwt>
<rscale>  0 0.11334918E+04</rscale>
<asrwt>0</asrwt>
<pdfrwt beam="1">  1        2 0.11039834E+00 0.11334918E+04</pdfrwt>
<pdfrwt beam="2">  1       -2 0.68863242E-01 0.11334918E+04</pdfrwt>
<totfact> 0.94735548E+01</totfact>
</mgrwt>
<rwgt>
<wgt id='morphing_basis_vector_1'> +2.0097768e-04 </wgt>
<wgt id='morphing_basis_vector_2'> +1.3411465e-04 </wgt>
<wgt id='morphing_basis_vector_3'> +1.9932035e-04 </wgt>
<wgt id='morphing_basis_vector_4'> +1.2059961e-04 </wgt>
<wgt id='morphing_basis_vector_5'> +1.9807423e-04 </wgt>
</rwgt>
</event>
<event>
 4      1 +7.8865000e-07 1.20411700e+03 7.81860800e-03 8.51103200e-02
        2 -1    0    0  501    0 +0.0000000000e+00 +0.0000000000e+00 +1.7423339722e+03 1.7423339722e+03 0.0000000000e+00 0.0000e+00 1.0000e+00
       -2 -1    0    0    0  501 -0.0000000000e+00 -0.0000000000e+00 -2.0803972486e+02 2.0803972486e+02 0.0000000000e+00 0.0000e+00 -1.0000e+00
      -13  1    1    2    0    0 +5.6041857129e+02 -5.1396025134e+01 +4.2064036021e+02 7.0260147956e+02 0.0000000000e+00 0.0000e+00 -1.0000e+00
       13  1    1    2    0    0 -5.6041857129e+02 +5.1396025134e+01 +1.1136538871e+03 1.2477722175e+03 0.0000000000e+00 0.0000e+00 1.0000e+00
<mgrwt>
<rscale>  0 0.12041174E+04</rscale>
<asrwt>0</asrwt>
<pdfrwt beam="1">  1        2 0.26805137E+00 0.12041174E+04</pdfrwt>
<pdfrwt beam="2">  1       -2 0.32006113E-01 0.12041174E+04</pdfrwt>
<totfact> 0.10096550E+02</totfact>
</mgrwt>
<rwgt>
<wgt id='morphing_basis_vector_1'> +2.5129149e-04 </wgt>
<wgt id='morphing_basis_vector_2'> +1.6610579e-04 </wgt>
<wgt id='morphing_basis_vector_3'> +2.5223526e-04 </wgt>
<wgt id='morphing_basis_vector_4'> +1.5771291e-04 </wgt>
<wgt id='morphing_basis_vector_5'> +2.5615029e-04 </wgt>
</rwgt>
</event>
<event>
 4      1 +7.8865000e-07 1.11438400e+03 7.81860800e-03 8.58249300e-02
        2 -1    0    0  501    0 +0.0000000000e+00 +0.0000000000e+00 +7.6002095536e+02 7.6002095536e+02 0.0000000000e+00 0.0000e+00 -1.0000e+00
       -2 -1    0    0    0  501 -0.0000000000e+00 -0.0000000000e+00 -4.0849243750e+02 4.0849243750e+02 0.0000000000e+00 0.0000e+00 1.0000e+00
      -13  1    1    2    0    0 +4.6300264608e+02 +2.6585420647e+02 +8.6066899953e+00 5.3397002209e+02 0.0000000000e+00 0.0000e+00 1.0000e+00
       13  1    1    2    0    0 -4.6300264608e+02 -2.6585420647e+02 +3.4292182786e+02 6.3454337078e+02 0.0000000000e+00 0.0000e+00 -1.0000e+00
<mgrwt>
<rscale>  0 0.11143838E+04</rscale>
<asrwt>0</asrwt>
<pdfrwt beam="1">  1        2 0.11692630E+00 0.11143838E+04</pdfrwt>
<pdfrwt beam="2">  1       -2 0.62844991E-01 0.11143838E+04</pdfrwt>
<totfact> 0.10700589E+02</totfact>
</mgrwt>
<rwgt>
<wgt id='morphing_basis_vector_1'> +1.8825687e-04 </wgt>
<wgt id='morphing_basis_vector_2'> +1.2469583e-04 </wgt>
<wgt id='morphing_basis_vector_3'> +1.8597701e-04 </wgt>
<wgt id='morphing_basis_vector_4'> +1.1267820e-04 </wgt>
<wgt id='morphing_basis_vector_5'> +1.8424798e-04 </wgt>
</rwgt>
</event>
<event>
 4      1 +7.8865000e-07 1.08903400e+03 7.81860800e-03 8.60395900e-02
        2 -1    0    0  501    0 +0.0000000000e+00 +0.0000000000e+00 +1.2413503715e+03 1.2413503715e+03 0.0000000000e+00 0.0000e+00 -1.0000e+00
       -2 -1    0    0    0  501 -0.0000000000e+00 -0.0000000000e+00 -2.3885190553e+02 2.3885190553e+02 0.0000000000e+00 0.0000e+00 1.0000e+00
      -13  1    1    2    0    0 -3.4936741575e+02 +2.0926444213e+02 +9.9639636632e+00 4.0736774357e+02 0.0000000000e+00 0.0000e+00 1.0000e+00
       13  1    1    2    0    0 +3.4936741575e+02 -2.0926444213e+02 +9.9253450226e+02 1.0728345334e+03 0.0000000000e+00 0.0000e+00 -1.0000e+00
<mgrwt>
<rscale>  0 0.10890343E+04</rscale>
<asrwt>0</asrwt>
<pdfrwt beam="1">  1        2 0.19097698E+00 0.10890343E+04</pdfrwt>
<pdfrwt beam="2">  1       -2 0.36746448E-01 0.10890343E+04</pdfrwt>
<totfact> 0.15140404E+02</totfact>
</mgrwt>
<rwgt>
<wgt id='morphing_basis_vector_1'> +1.7095971e-04 </wgt>
<wgt id='morphing_basis_vector_2'> +1.0880127e-04 </wgt>
<wgt id='morphing_basis_vector_3'> +1.6791375e-04 </wgt>
<wgt id='morphing_basis_vector_4'> +1.0501663e-04 </wgt>
<wgt id='morphing_basis_vector_5'> +1.6715814e-04 </wgt>
</rwgt>
</event>
<event>
 4      1 +7.8865000e-07 1.11789700e+03 7.81860800e-03 8.57956400e-02
        2 -1    0    0  501    0 +0.0000000000e+00 +0.0000000000e+00 +3.3555017342e+03 3.3555017342e+03 0.0000000000e+00 0.0000e+00 -1.0000e+00
       -2 -1    0    0    0  501 -0.0000000000e+00 -0.0000000000e+00 -9.3107841806e+01 9.3107841806e+01 0.0000000000e+00 0.0000e+00 1.0000e+00
      -13  1    1    2    0    0 +5.4989208935e+02 +8.7861285938e+01 +1.7798693066e+03 1.8649492390e+03 0.0000000000e+00 0.0000e+00 1.0000e+00
       13  1    1    2    0    0 -5.4989208935e+02 -8.7861285938e+01 +1.4825245858e+03 1.5836603370e+03 0.0000000000e+00 0.0000e+00 -1.0000e+00
<mgrwt>
<rscale>  0 0.11178972E+04</rscale>
<asrwt>0</asrwt>
<pdfrwt beam="1">  1        2 0.51623094E+00 0.11178972E+04</pdfrwt>
<pdfrwt beam="2">  1       -2 0.14324286E-01 0.11178972E+04</pdfrwt>
<totfact> 0.42088033E+01</totfact>
</mgrwt>
<rwgt>
<wgt id='morphing_basis_vector_1'> +1.9745121e-04 </wgt>
<wgt id='morphing_basis_vector_2'> +1.4718614e-04 </wgt>
<wgt id='morphing_basis_vector_3'> +1.9569353e-04 </wgt>
<wgt id='morphing_basis_vector_4'> +1.0268122e-04 </wgt>
<wgt id='morphing_basis_vector_5'> +1.8599244e-04 </wgt>
</rwgt>
</event>
<event>
 4      1 +7.8865000e-07 1.19484000e+03 7.81860800e-03 8.51811100e-02
        2 -1    0    0  501    0 +0.0000000000e+00 +0.0000000000e+00 +2.6780779000e+03 2.6780779000e+03 0.0000000000e+00 0.0000e+00 1.0000e+00
       -2 -1    0    0    0  501 -0.0000000000e+00 -0.0000000000e+00 -1.3327130601e+02 1.3327130601e+02 0.0000000000e+00 0.0000e+00 -1.0000e+00
      -13  1    1    2    0    0 -5.1111152644e+02 +2.9254789351e+02 +1.5087701304e+03 1.6196316151e+03 0.0000000000e+00 0.0000e+00 1.0000e+00
       13  1    1    2    0    0 +5.1111152644e+02 -2.9254789351e+02 +1.0360364636e+03 1.1917175909e+03 0.0000000000e+00 0.0000e+00 -1.0000e+00
<mgrwt>
<rscale>  0 0.11948405E+04</rscale>
<asrwt>0</asrwt>
<pdfrwt beam="1">  1        2 0.41201194E+00 0.11948405E+04</pdfrwt>
<pdfrwt beam="2">  1       -2 0.20503280E-01 0.11948405E+04</pdfrwt>
<totfact> 0.63491625E+01</totfact>
</mgrwt>
<rwgt>
<wgt id='morphing_basis_vector_1'> +2.5761887e-04 </wgt>
<wgt id='morphing_basis_vector_2'> +2.0196329e-04 </wgt>
<wgt id='morphing_basis_vector_3'> +2.5989374e-04 </wgt>
<wgt id='morphing_basis_vector_4'> +1.2941009e-04 </wgt>
<wgt id='morphing_basis_vector_5'> +2.4632937e-04 </wgt>
</rwgt>
</event>
<event>
 4      1 +7.8865000e-07 1.11771300e+03 7.81860800e-03 8.57971700e-02
        2 -1    0    0  501    0 +0.0000000000e+00 +0.0000000000e+00 +1.5574946258e+03 1.5574946258e+03 0.0000000000e+00 0.0000e+00 1.0000e+00
       -2 -1    0    0    0  501 -0.0000000000e+00 -0.0000000000e+00 -2.0052757451e+02 2.0052757451e+02 0.0000000000e+00 0.0000e+00 -1.0000e+00
      -13  1    1    2    0    0 -5.0871855222e+02 -4.8635669988e+01 +3.2271956209e+02 6.0440707269e+02 0.0000000000e+00 0.0000e+00 -1.0000e+00
       13  1    1    2    0    0 +5.0871855222e+02 +4.8635669988e+01 +1.0342474892e+03 1.1536151277e+03 0.0000000000e+00 0.0000e+00 1.0000e+00
<mgrwt>
<rscale>  0 0.11177131E+04</rscale>
<asrwt>0</asrwt>
<pdfrwt beam="1">  1        2 0.23961455E+00 0.11177131E+04</pdfrwt>
<pdfrwt beam="2">  1       -2 0.30850397E-01 0.11177131E+04</pdfrwt>
<totfact> 0.13739617E+02</totfact>
</mgrwt>
<rwgt>
<wgt id='morphing_basis_vector_1'> +1.8946072e-04 </wgt>
<wgt id='morphing_basis_vector_2'> +1.2338710e-04 </wgt>
<wgt id='morphing_basis_vector_3'> +1.8722675e-04 </wgt>
<wgt id='morphing_basis_vector_4'> +1.1563046e-04 </wgt>
<wgt id='morphing_basis_vector_5'> +1.8670845e-04 </wgt>
</rwgt>
</event>
<event>
 4      1 +7.8865000e-07 1.10706300e+03 7.81860800e-03 8.58863200e-02
        2 -1    0    0  501    0 +0.0000000000e+00 +0.0000000000e+00 +1.8901770080e+03 1.8901770080e+03 0.0000000000e+00 0.0000e+00 1.0000e+00
       -2 -1    0    0    0  501 -0.0000000000e+00 -0.0000000000e+00 -1.6209968866e+02 1.6209968866e+02 0.0000000000e+00 0.0000e+00 -1.0000e+00
      -13  1    1    2    0    0 -1.4558780213e+01 -4.6038361235e+02 +2.9497222666e+02 5.4696768012e+02 0.0000000000e+00 0.0000e+00 -1.0000e+00
       13  1    1    2    0    0 +1.4558780213e+01 +4.6038361235e+02 +1.4331050926e+03 1.5053090165e+03 0.0000000000e+00 0.0000e+00 1.0000e+00
<mgrwt>
<rscale>  0 0.11070630E+04</rscale>
<asrwt>0</asrwt>
<pdfrwt beam="1">  1        2 0.29079645E+00 0.11070630E+04</pdfrwt>
<pdfrwt beam="2">  1       -2 0.24938415E-01 0.11070630E+04</pdfrwt>
<totfact> 0.13052015E+02</totfact>
</mgrwt>
<rwgt>
<wgt id='morphing_basis_vector_1'> +1.8209320e-04 </wgt>
<wgt id='morphing_basis_vector_2'> +1.1683032e-04 </wgt>
<wgt id='morphing_basis_vector_3'> +1.7952096e-04 </wgt>
<wgt id='morphing_basis_vector_4'> +1.1214405e-04 </wgt>
<wgt id='morphing_basis_vector_5'> +1.7929809e-04 </wgt>
</rwgt>
</event>
<event>
 4      1 +7.8865000e-07 1.22852000e+03 7.81860800e-03 8.49272600e-02
        2 -1    0    0  501    0 +0.0000000000e+00 +0.0000000000e+00 +1.2264558971e+03 1.2264558971e+03 0.0000000000e+00 0.0000e+00 -1.0000e+00
       -2 -1    0    0    0  501 -0.0000000000e+00 -0.0000000000e+00 -3.0764703827e+02 3.0764703827e+02 0.0000000000e+00 0.0000e+00 1.0000e+00
      -13  1    1    2    0    0 +1.7173539965e+02 -3.1443267288e+02 -1.6365894166e+02 3.9388475783e+02 0.0000000000e+00 0.0000e+00 1.0000e+00
       13  1    1    2    0    0 -1.7173539965e+02 +3.1443267288e+02 +1.0824678005e+03 1.1402181775e+03 0.0000000000e+00 0.0000e+00 -1.0000e+00
<mgrwt>
<rscale>  0 0.12285203E+04</rscale>
<asrwt>0</asrwt>
<pdfrwt beam="1">  1        2 0.18868552E+00 0.12285203E+04</pdfrwt>
<pdfrwt beam="2">  1       -2 0.47330314E-01 0.12285203E+04</pdfrwt>
<totfact> 0.94898029E+01</totfact>
</mgrwt>
<rwgt>
<wgt id='morphing_basis_vector_1'> +2.6887933e-04 </wgt>
<wgt id='morphing_basis_vector_2'> +1.7282165e-04 </wgt>
<wgt id='morphing_basis_vector_3'> +2.7059734e-04 </wgt>
<wgt id='morphing_basis_vector_4'> +1.7553933e-04 </wgt>
<wgt id='morphing_basis_vector_5'> +2.7908140e-04 </wgt>
</rwgt>
</event>
<event>
 4      1 +7.8865000e-07 1.18737600e+03 7.81860800e-03 8.52385600e-02
        2 -1    0    0  501    0 +0.0000000000e+00 +0.0000000000e+00 +2.7680329133e+03 2.7680329133e+03 0.0000000000e+00 0.0000e+00 1.0000e+00
       -2 -1    0    0    0  501 -0.0000000000e+00 -0.0000000000e+00 -1.2733429222e+02 1.2733429222e+02 0.0000000000e+00 0.0000e+00 -1.0000e+00
      -13  1    1    2    0    0 +3.6871204686e+02 +4.0075280451e+02 +7.4374734372e+02 9.2179796871e+02 0.0000000000e+00 0.0000e+00 -1.0000e+00
       13  1    1    2    0    0 -3.6871204686e+02 -4.0075280451e+02 +1.8969512774e+03 1.9735692368e+03 0.0000000000e+00 0.0000e+00 1.0000e+00
<mgrwt>
<rscale>  0 0.11873761E+04</rscale>
<asrwt>0</asrwt>
<pdfrwt beam="1">  1        2 0.42585117E+00 0.11873761E+04</pdfrwt>
<pdfrwt beam="2">  1       -2 0.19589893E-01 0.11873761E+04</pdfrwt>
<totfact> 0.60413085E+01</totfact>
</mgrwt>
<rwgt>
<wgt id='morphing_basis_vector_1'> +2.3795950e-04 </wgt>
<wgt id='morphing_basis_vector_2'> +1.5618332e-04 </wgt>
<wgt id='morphing_basis_vector_3'> +2.3815013e-04 </wgt>
<wgt id='morphing_basis_vector_4'> +1.4930081e-04 </wgt>
<wgt id='morphing_basis_vector_5'> +2.4145136e-04 </wgt>
</rwgt>
</event>
<event>
 4      1 +7.8865000e-07 1.16704100e+03 7.81860800e-03 8.53973700e-02
        2 -1    0    0  501    0 +0.0000000000e+00 +0.0000000000e+00 +1.2736237371e+03 1.2736237371e+03 0.0000000000e+00 0.0000e+00 1.0000e+00
       -2 -1    0    0    0  501 -0.0000000000e+00 -0.0000000000e+00 -2.6734422811e+02 2.6734422811e+02 0.0000000000e+00 0.0000e+00 -1.0000e+00
      -13  1    1    2    0    0 +1.0309108882e+02 +1.9271205476e+02 -2.1126022815e+02 3.0396807833e+02 0.0000000000e+00 0.0000e+00 -1.0000e+00
       13  1    1    2    0    0 -1.0309108882e+02 -1.9271205476e+02 +1.2175397371e+03 1.2369998869e+03 0.0000000000e+00 0.0000e+00 1.0000e+00
<mgrwt>
<rscale>  0 0.11670406E+04</rscale>
<asrwt>0</asrwt>
<pdfrwt beam="1">  1        2 0.19594211E+00 0.11670406E+04</pdfrwt>
<pdfrwt beam="2">  1       -2 0.41129882E-01 0.11670406E+04</pdfrwt>
<totfact> 0.11703387E+02</totfact>
</mgrwt>
<rwgt>
<wgt id='morphing_basis_vector_1'> +2.2134220e-04 </wgt>
<wgt id='morphing_basis_vector_2'> +1.4124976e-04 </wgt>
<wgt id='morphing_basis_vector_3'> +2.2057973e-04 </wgt>
<wgt id='morphing_basis_vector_4'> +1.4148452e-04 </wgt>
<wgt id='morphing_basis_vector_5'> +2.2457250e-04 </wgt>
</rwgt>
</event>
<event>
 4      1 +7.8865000e-07 1.11994600e+03 7.81860800e-03 8.57786100e-02
        2 -1    0    0  501    0 +0.0000000000e+00 +0.0000000000e+00 +2.7000356107e+03 2.7000356107e+03 0.0000000000e+00 0.0000e+00 1.0000e+00
       -2 -1    0    0    0  501 -0.0000000000e+00 -0.0000000000e+00 -1.1613538939e+02 1.1613538939e+02 0.0000000000e+00 0.0000e+00 -1.0000e+00
      -13  1    1    2    0    0 -2.0699316763e+02 +3.9208145329e+02 +2.1520459495e+03 2.1972427736e+03 0.0000000000e+00 0.0000e+00 1.0000e+00
       13  1    1    2    0    0 +2.0699316763e+02 -3.9208145329e+02 +4.3185427187e+02 6.1892822653e+02 0.0000000000e+00 0.0000e+00 -1.0000e+00
<mgrwt>
<rscale>  0 0.11199459E+04</rscale>
<asrwt>0</asrwt>
<pdfrwt beam="1">  1        2 0.41539005E+00 0.11199459E+04</pdfrwt>
<pdfrwt beam="2">  1       -2 0.17866985E-01 0.11199459E+04</pdfrwt>
<totfact> 0.77997337E+01</totfact>
</mgrwt>
<rwgt>
<wgt id='morphing_basis_vector_1'> +2.3484952e-04 </wgt>
<wgt id='morphing_basis_vector_2'> +2.5678756e-04 </wgt>
<wgt id='morphing_basis_vector_3'> +2.3539691e-04 </wgt>
<wgt id='morphing_basis_vector_4'> +4.3782308e-05 </wgt>
<wgt id='morphing_basis_vector_5'> +1.8356390e-04 </wgt>
</rwgt>
</event>
<event>
 4      1 +7.8865000e-07 1.13537100e+03 7.81860800e-03 8.56516100e-02
        2 -1    0    0  501    0 +0.0000000000e+00 +0.0000000000e+00 +6.4227176461e+02 6.4227176461e+02 0.0000000000e+00 0.0000e+00 -1.0000e+00
       -2 -1    0    0    0  501 -0.0000000000e+00 -0.0000000000e+00 -5.0176082520e+02 5.0176082520e+02 0.0000000000e+00 0.0000e+00 1.0000e+00
      -13  1    1    2    0    0 +1.2940960895e+02 -2.9661267552e+02 -3.9971552472e+02 5.1429410542e+02 0.0000000000e+00 0.0000e+00 1.0000e+00
       13  1    1    2    0    0 -1.2940960895e+02 +2.9661267552e+02 +5.4022646414e+02 6.2973848439e+02 0.0000000000e+00 0.0000e+00 -1.0000e+00
<mgrwt>
<rscale>  0 0.11353710E+04</rscale>
<asrwt>0</asrwt>
<pdfrwt beam="1">  1        2 0.98811041E-01 0.11353710E+04</pdfrwt>
<pdfrwt beam="2">  1       -2 0.77193973E-01 0.11353710E+04</pdfrwt>
<totfact> 0.84537890E+01</totfact>
</mgrwt>
<rwgt>
<wgt id='morphing_basis_vector_1'> +1.9962459e-04 </wgt>
<wgt id='morphing_basis_vector_2'> +1.2712420e-04 </wgt>
<wgt id='morphing_basis_vector_3'> +1.9783113e-04 </wgt>
<wgt id='morphing_basis_vector_4'> +1.2580365e-04 </wgt>
<wgt id='morphing_basis_vector_5'> +1.9976316e-04 </wgt>
</rwgt>
</event>
<event>
 4      1 +7.8865000e-07 1.16101000e+03 7.81860800e-03 8.54451200e-02
        2 -1    0    0  501    0 +0.0000000000e+00 +0.0000000000e+00 +1.9811872952e+03 1.9811872952e+03 0.0000000000e+00 0.0000e+00 -1.0000e+00
       -2 -1    0    0    0  501 -0.0000000000e+00 -0.0000000000e+00 -1.7009300090e+02 1.7009300090e+02 0.0000000000e+00 0.0000e+00 1.0000e+00
      -13  1    1    2    0    0 +5.2057638219e+02 +2.0035232682e+02 +6.0766015897e+02 8.2485858991e+02 0.0000000000e+00 0.0000e+00 1.0000e+00
       13  1    1    2    0    0 -5.2057638219e+02 -2.0035232682e+02 +1.2034341353e+03 1.3264217062e+03 0.0000000000e+00 0.0000e+00 -1.0000e+00
<mgrwt>
<rscale>  0 0.11610101E+04</rscale>
<asrwt>0</asrwt>
<pdfrwt beam="1">  1        2 0.30479803E+00 0.11610101E+04</pdfrwt>
<pdfrwt beam="2">  1       -2 0.26168155E-01 0.11610101E+04</pdfrwt>
<totfact> 0.10642690E+02</totfact>
</mgrwt>
<rwgt>
<wgt id='morphing_basis_vector_1'> +2.1973403e-04 </wgt>
<wgt id='morphing_basis_vector_2'> +1.4647444e-04 </wgt>
<wgt id='morphing_basis_vector_3'> +2.1902761e-04 </wgt>
<wgt id='morphing_basis_vector_4'> +1.3390180e-04 </wgt>
<wgt id='morphing_basis_vector_5'> +2.1938376e-04 </wgt>
</rwgt>
</event>
<event>
 4      1 +7.8865000e-07 1.22867000e+03 7.81860800e-03 8.49261600e-02
        2 -1    0    0  501    0 +0.0000000000e+00 +0.0000000000e+00 +8.1482690676e+02 8.1482690676e+02 0.0000000000e+00 0.0000e+00 -1.0000e+00
       -2 -1    0    0    0  501 -0.0000000000e+00 -0.0000000000e+00 -4.6317488505e+02 4.6317488505e+02 0.0000000000e+00 0.0000e+00 1.0000e+00
      -13  1    1    2    0    0 -3.9723028281e+02 +1.7131301100e+02 -2.7788401710e+02 5.1415909238e+02 0.0000000000e+00 0.0000e+00 1.0000e+00
       13  1    1    2    0    0 +3.9723028281e+02 -1.7131301100e+02 +6.2953603881e+02 7.6384269943e+02 0.0000000000e+00 0.0000e+00 -1.0000e+00
<mgrwt>
<rscale>  0 0.12286698E+04</rscale>
<asrwt>0</asrwt>
<pdfrwt beam="1">  1        2 0.12535799E+00 0.12286698E+04</pdfrwt>
<pdfrwt beam="2">  1       -2 0.71257675E-01 0.12286698E+04</pdfrwt>
<totfact> 0.74450312E+01</totfact>
</mgrwt>
<rwgt>
<wgt id='morphing_basis_vector_1'> +2.6919667e-04 </wgt>
<wgt id='morphing_basis_vector_2'> +1.7348362e-04 </wgt>
<wgt id='morphing_basis_vector_3'> +2.7095117e-04 </wgt>
<wgt id='morphing_basis_vector_4'> +1.7529411e-04 </wgt>
<wgt id='morphing_basis_vector_5'> +2.7920177e-04 </wgt>
</rwgt>
</event>
<event>
 4      1 +7.8865000e-07 1.22818300e+03 7.81860800e-03 8.49297600e-02
        2 -1    0    0  501    0 +0.0000000000e+00 +0.0000000000e+00 +2.3950923820e+02 2.3950923820e+02 0.0000000000e+00 0.0000e+00 -1.0000e+00
       -2 -1    0    0    0  501 -0.0000000000e+00 -0.0000000000e+00 -1.5745048760e+03 1.5745048760e+03 0.0000000000e+00 0.0000e+00 1.0000e+00
      -13  1    1    2    0    0 -3.8788233225e+02 -3.7213790131e+02 -1.1060647017e+03 1.2297635731e+03 0.0000000000e+00 0.0000e+00 1.0000e+00
       13  1    1    2    0    0 +3.8788233225e+02 +3.7213790131e+02 -2.2893093602e+02 5.8425054106e+02 0.0000000000e+00 0.0000e+00 -1.0000e+00
<mgrwt>
<rscale>  0 0.12281832E+04</rscale>
<asrwt>0</asrwt>
<pdfrwt beam="1">  1        2 0.36847575E-01 0.12281832E+04</pdfrwt>
<pdfrwt beam="2">  1       -2 0.24223152E+00 0.12281832E+04</pdfrwt>
<totfact> 0.10087139E+01</totfact>
</mgrwt>
<rwgt>
<wgt id='morphing_basis_vector_1'> +2.6977029e-04 </wgt>
<wgt id='morphing_basis_vector_2'> +1.7615020e-04 </wgt>
<wgt id='morphing_basis_vector_3'> +2.7165246e-04 </wgt>
<wgt id='morphing_basis_vector_4'> +1.7330657e-04 </wgt>
<wgt id='morphing_basis_vector_5'> +2.7861891e-04 </wgt>
</rwgt>
</event>
<event>
 4      1 +7.8865000e-07 1.12235200e+03 7.81860800e-03 8.57586600e-02
        2 -1    0    0  501    0 +0.0000000000e+00 +0.0000000000e+00 +1.6087526276e+03 1.6087526276e+03 0.0000000000e+00 0.0000e+00 1.0000e+00
       -2 -1    0    0    0  501 -0.0000000000e+00 -0.0000000000e+00 -1.9575335361e+02 1.9575335361e+02 0.0000000000e+00 0.0000e+00 -1.0000e+00
      -13  1    1    2    0    0 -3.8586203304e+02 -1.6934820699e+02 +1.1063988493e+02 4.3567133012e+02 0.0000000000e+00 0.0000e+00 -1.0000e+00
       13  1    1    2    0    0 +3.8586203304e+02 +1.6934820699e+02 +1.3023593891e+03 1.3688346511e+03 0.0000000000e+00 0.0000e+00 1.0000e+00
<mgrwt>
<rscale>  0 0.11223524E+04</rscale>
<asrwt>0</asrwt>
<pdfrwt beam="1">  1        2 0.24750040E+00 0.11223524E+04</pdfrwt>
<pdfrwt beam="2">  1       -2 0.30115902E-01 0.11223524E+04</pdfrwt>
<totfact> 0.13426450E+02</totfact>
</mgrwt>
<rwgt>
<wgt id='morphing_basis_vector_1'> +1.9140463e-04 </wgt>
<wgt id='morphing_basis_vector_2'> +1.2229645e-04 </wgt>
<wgt id='morphing_basis_vector_3'> +1.8924282e-04 </wgt>
<wgt id='morphing_basis_vector_4'> +1.1938388e-04 </wgt>
<wgt id='morphing_basis_vector_5'> +1.9014976e-04 </wgt>
</rwgt>
</event>
<event>
 4      1 +7.8865000e-07 1.28451800e+03 7.81860800e-03 8.45235700e-02
        2 -1    0    0  501    0 +0.0000000000e+00 +0.0000000000e+00 +1.8649491190e+03 1.8649491190e+03 0.0000000000e+00 0.0000e+00 -1.0000e+00
       -2 -1    0    0    0  501 -0.0000000000e+00 -0.0000000000e+00 -2.2118390183e+02 2.2118390183e+02 0.0000000000e+00 0.0000e+00 1.0000e+00
      -13  1    1    2    0    0 -1.6442353829e+02 -3.8237275602e+02 +2.7499185648e+01 4.1713334763e+02 0.0000000000e+00 0.0000e+00 1.0000e+00
       13  1    1    2    0    0 +1.6442353829e+02 +3.8237275602e+02 +1.6162660315e+03 1.6689996732e+03 0.0000000000e+00 0.0000e+00 -1.0000e+00
<mgrwt>
<rscale>  0 0.12845182E+04</rscale>
<asrwt>0</asrwt>
<pdfrwt beam="1">  1        2 0.28691524E+00 0.12845182E+04</pdfrwt>
<pdfrwt beam="2">  1       -2 0.34028294E-01 0.12845182E+04</pdfrwt>
<totfact> 0.76823151E+01</totfact>
</mgrwt>
<rwgt>
<wgt id='morphing_basis_vector_1'> +3.1862054e-04 </wgt>
<wgt id='morphing_basis_vector_2'> +2.0597880e-04 </wgt>
<wgt id='morphing_basis_vector_3'> +3.2318601e-04 </wgt>
<wgt id='morphing_basis_vector_4'> +2.1150479e-04 </wgt>
<wgt id='morphing_basis_vector_5'> +3.3669125e-04 </wgt>
</rwgt>
</event>
<event>
 4      1 +7.8865000e-07 1.20706500e+03 7.81860800e-03 8.50879700e-02
        2 -1    0    0  501    0 +0.0000000000e+00 +0.0000000000e+00 +6.8541711781e+02 6.8541711781e+02 0.0000000000e+00 0.0000e+00 1.0000e+00
       -2 -1    0    0    0  501 -0.0000000000e+00 -0.0000000000e+00 -5.3142998122e+02 5.3142998122e+02 0.0000000000e+00 0.0000e+00 -1.0000e+00
      -13  1    1    2    0    0 -4.7043192779e+02 -1.1052850237e+02 -2.8750060037e+02 5.6229826937e+02 0.0000000000e+00 0.0000e+00 -1.0000e+00
       13  1    1    2    0    0 +4.7043192779e+02 +1.1052850237e+02 +4.4148773696e+02 6.5454882966e+02 0.0000000000e+00 0.0000e+00 1.0000e+00
<mgrwt>
<rscale>  0 0.12070645E+04</rscale>
<asrwt>0</asrwt>
<pdfrwt beam="1">  1        2 0.10544879E+00 0.12070645E+04</pdfrwt>
<pdfrwt beam="2">  1       -2 0.81758459E-01 0.12070645E+04</pdfrwt>
<totfact> 0.68285917E+01</totfact>
</mgrwt>
<rwgt>
<wgt id='morphing_basis_vector_1'> +2.5203457e-04 </wgt>
<wgt id='morphing_basis_vector_2'> +1.6290944e-04 </wgt>
<wgt id='morphing_basis_vector_3'> +2.5288963e-04 </wgt>
<wgt id='morphing_basis_vector_4'> +1.6208733e-04 </wgt>
<wgt id='morphing_basis_vector_5'> +2.5899891e-04 </wgt>
</rwgt>
</event>
<event>
 4      1 +7.8865000e-07 1.07800700e+03 7.81860800e-03 8.61348600e-02
        2 -1    0    0  501    0 +0.0000000000e+00 +0.0000000000e+00 +1.7032233556e+03 1.7032233556e+03 0.0000000000e+00 0.0000e+00 1.0000e+00
       -2 -1    0    0    0  501 -0.0000000000e+00 -0.0000000000e+00 -1.7057365794e+02 1.7057365794e+02 0.0000000000e+00 0.0000e+00 -1.0000e+00
      -13  1    1    2    0    0 +3.9464451902e+02 -8.2739592052e+01 +1.4460421217e+02 4.2836960053e+02 0.0000000000e+00 0.0000e+00 -1.0000e+00
       13  1    1    2    0    0 -3.9464451902e+02 +8.2739592052e+01 +1.3880454855e+03 1.4454274130e+03 0.0000000000e+00 0.0000e+00 1.0000e+00
<mgrwt>
<rscale>  0 0.10780075E+04</rscale>
<asrwt>0</asrwt>
<pdfrwt beam="1">  1        2 0.26203435E+00 0.10780075E+04</pdfrwt>
<pdfrwt beam="2">  1       -2 0.26242102E-01 0.10780075E+04</pdfrwt>
<totfact> 0.15201918E+02</totfact>
</mgrwt>
<rwgt>
<wgt id='morphing_basis_vector_1'> +1.6457967e-04 </wgt>
<wgt id='morphing_basis_vector_2'> +1.0460298e-04 </wgt>
<wgt id='morphing_basis_vector_3'> +1.6127419e-04 </wgt>
<wgt id='morphing_basis_vector_4'> +1.0055099e-04 </wgt>
<wgt id='morphing_basis_vector_5'> +1.6001930e-04 </wgt>
</rwgt>
</event>
<event>
 4      1 +7.8865000e-07 1.26280800e+03 7.81860800e-03 8.46774700e-02
        2 -1    0    0  501    0 +0.0000000000e+00 +0.0000000000e+00 +5.4782286193e+02 5.4782286193e+02 0.0000000000e+00 0.0000e+00 -1.0000e+00
       -2 -1    0    0    0  501 -0.0000000000e+00 -0.0000000000e+00 -7.2773725909e+02 7.2773725909e+02 0.0000000000e+00 0.0000e+00 1.0000e+00
      -13  1    1    2    0    0 -2.6780638549e+02 +2.7949729871e+02 -5.9382518389e+02 7.0884931341e+02 0.0000000000e+00 0.0000e+00 1.0000e+00
       13  1    1    2    0    0 +2.6780638549e+02 -2.7949729871e+02 +4.1391078673e+02 5.6671080762e+02 0.0000000000e+00 0.0000e+00 -1.0000e+00
<mgrwt>
<rscale>  0 0.12628082E+04</rscale>
<asrwt>0</asrwt>
<pdfrwt beam="1">  1        2 0.84280441E-01 0.12628082E+04</pdfrwt>
<pdfrwt beam="2">  1       -2 0.11195958E+00 0.12628082E+04</pdfrwt>
<totfact> 0.41882450E+01</totfact>
</mgrwt>
<rwgt>
<wgt id='morphing_basis_vector_1'> +2.9854923e-04 </wgt>
<wgt id='morphing_basis_vector_2'> +1.9253895e-04 </wgt>
<wgt id='morphing_basis_vector_3'> +3.0193640e-04 </wgt>
<wgt id='morphing_basis_vector_4'> +1.9700745e-04 </wgt>
<wgt id='morphing_basis_vector_5'> +3.1340989e-04 </wgt>
</rwgt>
</event>
<event>
 4      1 +7.8865000e-07 1.10781000e+03 7.81860800e-03 8.58800300e-02
        2 -1    0    0  501    0 +0.0000000000e+00 +0.0000000000e+00 +1.1789344572e+03 1.1789344572e+03 0.0000000000e+00 0.0000e+00 1.0000e+00
       -2 -1    0    0    0  501 -0.0000000000e+00 -0.0000000000e+00 -2.6024404975e+02 2.6024404975e+02 0.0000000000e+00 0.0000e+00 -1.0000e+00
      -13  1    1    2    0    0 +2.8589728910e+02 +1.2523946996e+02 -1.3511917949e+02 3.4011671147e+02 0.0000000000e+00 0.0000e+00 -1.0000e+00
       13  1    1    2    0    0 -2.8589728910e+02 -1.2523946996e+02 +1.0538095870e+03 1.0990617955e+03 0.0000000000e+00 0.0000e+00 1.0000e+00
<mgrwt>
<rscale>  0 0.11078099E+04</rscale>
<asrwt>0</asrwt>
<pdfrwt beam="1">  1        2 0.18137453E+00 0.11078099E+04</pdfrwt>
<pdfrwt beam="2">  1       -2 0.40037547E-01 0.11078099E+04</pdfrwt>
<totfact> 0.14026723E+02</totfact>
</mgrwt>
<rwgt>
<wgt id='morphing_basis_vector_1'> +1.8202975e-04 </wgt>
<wgt id='morphing_basis_vector_2'> +1.1555562e-04 </wgt>
<wgt id='morphing_basis_vector_3'> +1.7945151e-04 </wgt>
<wgt id='morphing_basis_vector_4'> +1.1332993e-04 </wgt>
<wgt id='morphing_basis_vector_5'> +1.7987165e-04 </wgt>
</rwgt>
</event>
<event>
 4      1 +7.8865000e-07 1.16023600e+03 7.81860800e-03 8.54512700e-02
        2 -1    0    0  501    0 +0.0000000000e+00 +0.0000000000e+00 +1.7149932103e+03 1.7149932103e+03 0.0000000000e+00 0.0000e+00 1.0000e+00
       -2 -1    0    0    0  501 -0.0000000000e+00 -0.0000000000e+00 -1.9623211848e+02 1.9623211848e+02 0.0000000000e+00 0.0000e+00 -1.0000e+00
      -13  1    1    2    0    0 +4.5988125262e+02 +1.8435608182e+02 +2.6230012705e+02 5.6060617912e+02 0.0000000000e+00 0.0000e+00 -1.0000e+00
       13  1    1    2    0    0 -4.5988125262e+02 -1.8435608182e+02 +1.2564609648e+03 1.3506191496e+03 0.0000000000e+00 0.0000e+00 1.0000e+00
<mgrwt>
<rscale>  0 0.11602358E+04</rscale>
<asrwt>0</asrwt>
<pdfrwt beam="1">  1        2 0.26384510E+00 0.11602358E+04</pdfrwt>
<pdfrwt beam="2">  1       -2 0.30189558E-01 0.11602358E+04</pdfrwt>
<totfact> 0.11641173E+02</totfact>
</mgrwt>
<rwgt>
<wgt id='morphing_basis_vector_1'> +2.1735524e-04 </wgt>
<wgt id='morphing_basis_vector_2'> +1.4060042e-04 </wgt>
<wgt id='morphing_basis_vector_3'> +2.1644007e-04 </wgt>
<wgt id='morphing_basis_vector_4'> +1.3660747e-04 </wgt>
<wgt id='morphing_basis_vector_5'> +2.1896801e-04 </wgt>
</rwgt>
</event>
<event>
 4      1 +7.8865000e-07 1.08228700e+03 7.81860800e-03 8.60977500e-02
        2 -1    0    0  501    0 +0.0000000000e+00 +0.0000000000e+00 +3.1954694963e+03 3.1954694963e+03 0.0000000000e+00 0.0000e+00 1.0000e+00
       -2 -1    0    0    0  501 -0.0000000000e+00 -0.0000000000e+00 -9.1641085145e+01 9.1641085145e+01 0.0000000000e+00 0.0000e+00 -1.0000e+00
      -13  1    1    2    0    0 -2.3183635633e+02 +4.8255458669e+02 +1.3122018940e+03 1.4172088187e+03 0.0000000000e+00 0.0000e+00 -1.0000e+00
       13  1    1    2    0    0 +2.3183635633e+02 -4.8255458669e+02 +1.7916265172e+03 1.8699017628e+03 0.0000000000e+00 0.0000e+00 1.0000e+00
<mgrwt>
<rscale>  0 0.10822870E+04</rscale>
<asrwt>0</asrwt>
<pdfrwt beam="1">  1        2 0.49161061E+00 0.10822870E+04</pdfrwt>
<pdfrwt beam="2">  1       -2 0.14098631E-01 0.10822870E+04</pdfrwt>
<totfact> 0.55734445E+01</totfact>
</mgrwt>
<rwgt>
<wgt id='morphing_basis_vector_1'> +1.7024206e-04 </wgt>
<wgt id='morphing_basis_vector_2'> +1.1589707e-04 </wgt>
<wgt id='morphing_basis_vector_3'> +1.6711320e-04 </wgt>
<wgt id='morphing_basis_vector_4'> +9.7053955e-05 </wgt>
<wgt id='morphing_basis_vector_5'> +1.6243128e-04 </wgt>
</rwgt>
</event>
<event>
 4      1 +7.8865000e-07 1.20315100e+03 7.81860800e-03 8.51176600e-02
        2 -1    0    0  501    0 +0.0000000000e+00 +0.0000000000e+00 +2.5067083706e+03 2.5067083706e+03 0.0000000000e+00 0.0000e+00 -1.0000e+00
       -2 -1    0    0    0  501 -0.0000000000e+00 -0.0000000000e+00 -1.4436982040e+02 1.4436982040e+02 0.0000000000e+00 0.0000e+00 1.0000e+00
      -13  1    1    2    0    0 -3.5686917869e+02 +4.2379682104e+02 +6.6472700869e+02 8.6534464366e+02 0.0000000000e+00 0.0000e+00 1.0000e+00
       13  1    1    2    0    0 +3.5686917869e+02 -4.2379682104e+02 +1.6976115415e+03 1.7857335473e+03 0.0000000000e+00 0.0000e+00 -1.0000e+00
<mgrwt>
<rscale>  0 0.12031509E+04</rscale>
<asrwt>0</asrwt>
<pdfrwt beam="1">  1        2 0.38564741E+00 0.12031509E+04</pdfrwt>
<pdfrwt beam="2">  1       -2 0.22210743E-01 0.12031509E+04</pdfrwt>
<totfact> 0.70241088E+01</totfact>
</mgrwt>
<rwgt>
<wgt id='morphing_basis_vector_1'> +2.5021259e-04 </wgt>
<wgt id='morphing_basis_vector_2'> +1.6463726e-04 </wgt>
<wgt id='morphing_basis_vector_3'> +2.5107175e-04 </wgt>
<wgt id='morphing_basis_vector_4'> +1.5772334e-04 </wgt>
<wgt id='morphing_basis_vector_5'> +2.5531859e-04 </wgt>
</rwgt>
</event>
<event>
 4      1 +7.8865000e-07 1.07470300e+03 7.81860800e-03 8.61636400e-02
        2 -1    0    0  501    0 +0.0000000000e+00 +0.0000000000e+00 +8.4740903601e+02 8.4740903601e+02 0.0000000000e+00 0.0000e+00 -1.0000e+00
       -2 -1    0    0    0  501 -0.0000000000e+00 -0.0000000000e+00 -3.4074049493e+02 3.4074049493e+02 0.0000000000e+00 0.0000e+00 1.0000e+00
      -13  1    1    2    0    0 +1.2807406016e+02 +1.7804053683e+02 +7.9567380715e+02 8.2534732387e+02 0.0000000000e+00 0.0000e+00 -1.0000e+00
       13  1    1    2    0    0 -1.2807406016e+02 -1.7804053683e+02 -2.8900526606e+02 3.6280220707e+02 0.0000000000e+00 0.0000e+00 1.0000e+00
<mgrwt>
<rscale>  0 0.10747029E+04</rscale>
<asrwt>0</asrwt>
<pdfrwt beam="1">  1        2 0.13037062E+00 0.10747029E+04</pdfrwt>
<pdfrwt beam="2">  1       -2 0.52421615E-01 0.10747029E+04</pdfrwt>
<totfact> 0.13472247E+02</totfact>
</mgrwt>
<rwgt>
<wgt id='morphing_basis_vector_1'> +2.2097860e-04 </wgt>
<wgt id='morphing_basis_vector_2'> +2.7923959e-04 </wgt>
<wgt id='morphing_basis_vector_3'> +2.1854710e-04 </wgt>
<wgt id='morphing_basis_vector_4'> +4.9435888e-06 </wgt>
<wgt id='morphing_basis_vector_5'> +1.5195841e-04 </wgt>
</rwgt>
</event>
<event>
 4      1 +7.8865000e-07 1.07982200e+03 7.81860800e-03 8.61191000e-02
        2 -1    0    0  501    0 +0.0000000000e+00 +0.0000000000e+00 +5.4334980377e+02 5.4334980377e+02 0.0000000000e+00 0.0000e+00 -1.0000e+00
       -2 -1    0    0    0  501 -0.0000000000e+00 -0.0000000000e+00 -5.3649391923e+02 5.3649391923e+02 0.0000000000e+00 0.0000e+00 1.0000e+00
      -13  1    1    2    0    0 -3.6035277829e+02 +2.3435591614e+02 -3.2326969737e+02 5.3784767127e+02 0.0000000000e+00 0.0000e+00 1.0000e+00
       13  1    1    2    0    0 +3.6035277829e+02 -2.3435591614e+02 +3.3012558191e+02 5.4199605173e+02 0.0000000000e+00 0.0000e+00 -1.0000e+00
<mgrwt>
<rscale>  0 0.10798220E+04</rscale>
<asrwt>0</asrwt>
<pdfrwt beam="1">  1        2 0.83592277E-01 0.10798220E+04</pdfrwt>
<pdfrwt beam="2">  1       -2 0.82537526E-01 0.10798220E+04</pdfrwt>
<totfact> 0.88821244E+01</totfact>
</mgrwt>
<rwgt>
<wgt id='morphing_basis_vector_1'> +1.6574466e-04 </wgt>
<wgt id='morphing_basis_vector_2'> +1.0567114e-04 </wgt>
<wgt id='morphing_basis_vector_3'> +1.6248356e-04 </wgt>
<wgt id='morphing_basis_vector_4'> +1.0106846e-04 </wgt>
<wgt id='morphing_basis_vector_5'> +1.6116517e-04 </wgt>
</rwgt>
</event>
<event>
 4      1 +7.8865000e-07 1.11688600e+03 7.81860800e-03 8.58040600e-02
        2 -1    0    0  501    0 +0.0000000000e+00 +0.0000000000e+00 +1.2925473071e+03 1.2925473071e+03 0.0000000000e+00 0.0000e+00 -1.0000e+00
       -2 -1    0    0    0  501 -0.0000000000e+00 -0.0000000000e+00 -2.4127436771e+02 2.4127436771e+02 0.0000000000e+00 0.0000e+00 1.0000e+00
      -13  1    1    2    0    0 +3.8180596145e+02 +6.6218748119e+01 -2.6591170117e+01 3.8841705051e+02 0.0000000000e+00 0.0000e+00 1.0000e+00
       13  1    1    2    0    0 -3.8180596145e+02 -6.6218748119e+01 +1.0778641095e+03 1.1454046243e+03 0.0000000000e+00 0.0000e+00 -1.0000e+00
<mgrwt>
<rscale>  0 0.11168859E+04</rscale>
<asrwt>0</asrwt>
<pdfrwt beam="1">  1        2 0.19885343E+00 0.11168859E+04</pdfrwt>
<pdfrwt beam="2">  1       -2 0.37119134E-01 0.11168859E+04</pdfrwt>
<totfact> 0.13861617E+02</totfact>
</mgrwt>
<rwgt>
<wgt id='morphing_basis_vector_1'> +1.8781530e-04 </wgt>
<wgt id='morphing_basis_vector_2'> +1.1965984e-04 </wgt>
<wgt id='morphing_basis_vector_3'> +1.8549121e-04 </wgt>
<wgt id='morphing_basis_vector_4'> +1.1711949e-04 </wgt>
<wgt id='morphing_basis_vector_5'> +1.8623957e-04 </wgt>
</rwgt>
</event>
<event>
 4      1 +7.8865000e-07 1.11815400e+03 7.81860800e-03 8.57935000e-02
        2 -1    0    0  501    0 +0.0000000000e+00 +0.0000000000e+00 +1.2854780338e+03 1.2854780338e+03 0.0000000000e+00 0.0000e+00 -1.0000e+00
       -2 -1    0    0    0  501 -0.0000000000e+00 -0.0000000000e+00 -2.4315253244e+02 2.4315253244e+02 0.0000000000e+00 0.0000e+00 1.0000e+00
      -13  1    1    2    0    0 -3.3052264391e+02 -2.6724885166e+02 +2.4658086816e+01 4.2576424004e+02 0.0000000000e+00 0.0000e+00 1.0000e+00
       13  1    1    2    0    0 +3.3052264391e+02 +2.6724885166e+02 +1.0176674146e+03 1.1028663262e+03 0.0000000000e+00 0.0000e+00 -1.0000e+00
<mgrwt>
<rscale>  0 0.11181543E+04</rscale>
<asrwt>0</asrwt>
<pdfrwt beam="1">  1        2 0.19776585E+00 0.11181543E+04</pdfrwt>
<pdfrwt beam="2">  1       -2 0.37408082E-01 0.11181543E+04</pdfrwt>
<totfact> 0.13791936E+02</totfact>
</mgrwt>
<rwgt>
<wgt id='morphing_basis_vector_1'> +1.8875572e-04 </wgt>
<wgt id='morphing_basis_vector_2'> +1.2060594e-04 </wgt>
<wgt id='morphing_basis_vector_3'> +1.8647552e-04 </wgt>
<wgt id='morphing_basis_vector_4'> +1.1745633e-04 </wgt>
<wgt id='morphing_basis_vector_5'> +1.8712945e-04 </wgt>
</rwgt>
</event>
<event>
 4      1 +7.8865000e-07 1.10202100e+03 7.81860800e-03 8.59288800e-02
        2 -1    0    0  501    0 +0.0000000000e+00 +0.0000000000e+00 +1.2117465480e+03 1.2117465480e+03 0.0000000000e+00 0.0000e+00 1.0000e+00
       -2 -1    0    0    0  501 -0.0000000000e+00 -0.0000000000e+00 -2.5055784124e+02 2.5055784124e+02 0.0000000000e+00 0.0000e+00 -1.0000e+00
      -13  1    1    2    0    0 -4.0785570851e+02 +2.8784445832e+02 +7.9011868245e+02 9.3460592953e+02 0.0000000000e+00 0.0000e+00 -1.0000e+00
       13  1    1    2    0    0 +4.0785570851e+02 -2.8784445832e+02 +1.7107002428e+02 5.2769845969e+02 0.0000000000e+00 0.0000e+00 1.0000e+00
<mgrwt>
<rscale>  0 0.11020211E+04</rscale>
<asrwt>0</asrwt>
<pdfrwt beam="1">  1        2 0.18642254E+00 0.11020211E+04</pdfrwt>
<pdfrwt beam="2">  1       -2 0.38547361E-01 0.11020211E+04</pdfrwt>
<totfact> 0.14407569E+02</totfact>
</mgrwt>
<rwgt>
<wgt id='morphing_basis_vector_1'> +2.0450462e-04 </wgt>
<wgt id='morphing_basis_vector_2'> +1.9165343e-04 </wgt>
<wgt id='morphing_basis_vector_3'> +2.0292788e-04 </wgt>
<wgt id='morphing_basis_vector_4'> +6.8118569e-05 </wgt>
<wgt id='morphing_basis_vector_5'> +1.7313506e-04 </wgt>
</rwgt>
</event>
<event>
 4      1 +7.8865000e-07 1.14848400e+03 7.81860800e-03 8.55452900e-02
        2 -1    0    0  501    0 +0.0000000000e+00 +0.0000000000e+00 +6.6530805959e+02 6.6530805959e+02 0.0000000000e+00 0.0000e+00 1.0000e+00
       -2 -1    0    0    0  501 -0.0000000000e+00 -0.0000000000e+00 -4.9564103047e+02 4.9564103047e+02 0.0000000000e+00 0.0000e+00 -1.0000e+00
      -13  1    1    2    0    0 -2.6613625838e+02 +1.5336532288e+02 +5.7528446547e+02 6.5215155179e+02 0.0000000000e+00 0.0000e+00 1.0000e+00
       13  1    1    2    0    0 +2.6613625838e+02 -1.5336532288e+02 -4.0561743635e+02 5.0879753828e+02 0.0000000000e+00 0.0000e+00 -1.0000e+00
<mgrwt>
<rscale>  0 0.11484842E+04</rscale>
<asrwt>0</asrwt>
<pdfrwt beam="1">  1        2 0.10235509E+00 0.11484842E+04</pdfrwt>
<pdfrwt beam="2">  1       -2 0.76252467E-01 0.11484842E+04</pdfrwt>
<totfact> 0.83193182E+01</totfact>
</mgrwt>
<rwgt>
<wgt id='morphing_basis_vector_1'> +2.8029061e-04 </wgt>
<wgt id='morphing_basis_vector_2'> +3.4914825e-04 </wgt>
<wgt id='morphing_basis_vector_3'> +2.8523892e-04 </wgt>
<wgt id='morphing_basis_vector_4'> +1.1448244e-05 </wgt>
<wgt id='morphing_basis_vector_5'> +2.0179426e-04 </wgt>
</rwgt>
</event>
<event>
 4      1 +7.8865000e-07 1.22072400e+03 7.81860800e-03 8.49852600e-02
        2 -1    0    0  501    0 +0.0000000000e+00 +0.0000000000e+00 +1.0475916294e+03 1.0475916294e+03 0.0000000000e+00 0.0000e+00 1.0000e+00
       -2 -1    0    0    0  501 -0.0000000000e+00 -0.0000000000e+00 -3.5561741512e+02 3.5561741512e+02 0.0000000000e+00 0.0000e+00 -1.0000e+00
      -13  1    1    2    0    0 -1.6380798200e+02 +3.5163063284e+02 -1.9569512974e+02 4.3448100156e+02 0.0000000000e+00 0.0000e+00 -1.0000e+00
       13  1    1    2    0    0 +1.6380798200e+02 -3.5163063284e+02 +8.8766934405e+02 9.6872804299e+02 0.0000000000e+00 0.0000e+00 1.0000e+00
<mgrwt>
<rscale>  0 0.12207241E+04</rscale>
<asrwt>0</asrwt>
<pdfrwt beam="1">  1        2 0.16116794E+00 0.12207241E+04</pdfrwt>
<pdfrwt beam="2">  1       -2 0.54710372E-01 0.12207241E+04</pdfrwt>
<totfact> 0.91173487E+01</totfact>
</mgrwt>
<rwgt>
<wgt id='morphing_basis_vector_1'> +2.6252788e-04 </wgt>
<wgt id='morphing_basis_vector_2'> +1.6876581e-04 </wgt>
<wgt id='morphing_basis_vector_3'> +2.6390620e-04 </wgt>
<wgt id='morphing_basis_vector_4'> +1.7079155e-04 </wgt>
<wgt id='morphing_basis_vector_5'> +2.7167191e-04 </wgt>
</rwgt>
</event>
<event>
 4      1 +7.8865000e-07 1.21752600e+03 7.81860800e-03 8.50091800e-02
        2 -1    0    0  501    0 +0.0000000000e+00 +0.0000000000e+00 +2.6183474093e+03 2.6183474093e+03 0.0000000000e+00 0.0000e+00 -1.0000e+00
       -2 -1    0    0    0  501 -0.0000000000e+00 -0.0000000000e+00 -1.4153679742e+02 1.4153679742e+02 0.0000000000e+00 0.0000e+00 1.0000e+00
      -13  1    1    2    0    0 -5.7010069321e+02 +1.2022080484e+02 +8.3849288957e+02 1.0210475837e+03 0.0000000000e+00 0.0000e+00 1.0000e+00
       13  1    1    2    0    0 +5.7010069321e+02 -1.2022080484e+02 +1.6383177223e+03 1.7388366230e+03 0.0000000000e+00 0.0000e+00 -1.0000e+00
<mgrwt>
<rscale>  0 0.12175262E+04</rscale>
<asrwt>0</asrwt>
<pdfrwt beam="1">  1        2 0.40282264E+00 0.12175262E+04</pdfrwt>
<pdfrwt beam="2">  1       -2 0.21774894E-01 0.12175262E+04</pdfrwt>
<totfact> 0.62218527E+01</totfact>
</mgrwt>
<rwgt>
<wgt id='morphing_basis_vector_1'> +2.6281087e-04 </wgt>
<wgt id='morphing_basis_vector_2'> +1.7569411e-04 </wgt>
<wgt id='morphing_basis_vector_3'> +2.6446721e-04 </wgt>
<wgt id='morphing_basis_vector_4'> +1.6394075e-04 </wgt>
<wgt id='morphing_basis_vector_5'> +2.6833799e-04 </wgt>
</rwgt>
</event>
<event>
 4      1 +7.8865000e-07 1.11231900e+03 7.81860800e-03 8.58422000e-02
        2 -1    0    0  501    0 +0.0000000000e+00 +0.0000000000e+00 +1.2331536101e+03 1.2331536101e+03 0.0000000000e+00 0.0000e+00 -1.0000e+00
       -2 -1    0    0    0  501 -0.0000000000e+00 -0.0000000000e+00 -2.5083111346e+02 2.5083111346e+02 0.0000000000e+00 0.0000e+00 1.0000e+00
      -13  1    1    2    0    0 -2.0546052587e+02 +4.1482197708e+01 -1.9611764029e+02 2.8704865311e+02 0.0000000000e+00 0.0000e+00 1.0000e+00
       13  1    1    2    0    0 +2.0546052587e+02 -4.1482197708e+01 +1.1784401369e+03 1.1969360704e+03 0.0000000000e+00 0.0000e+00 -1.0000e+00
<mgrwt>
<rscale>  0 0.11123188E+04</rscale>
<asrwt>0</asrwt>
<pdfrwt beam="1">  1        2 0.18971594E+00 0.11123188E+04</pdfrwt>
<pdfrwt beam="2">  1       -2 0.38589403E-01 0.11123188E+04</pdfrwt>
<totfact> 0.13962914E+02</totfact>
</mgrwt>
<rwgt>
<wgt id='morphing_basis_vector_1'> +1.8476704e-04 </wgt>
<wgt id='morphing_basis_vector_2'> +1.1722070e-04 </wgt>
<wgt id='morphing_basis_vector_3'> +1.8230679e-04 </wgt>
<wgt id='morphing_basis_vector_4'> +1.1539870e-04 </wgt>
<wgt id='morphing_basis_vector_5'> +1.8302772e-04 </wgt>
</rwgt>
</event>
<event>
 4      1 +7.8865000e-07 1.09935000e+03 7.81860800e-03 8.59515200e-02
        2 -1    0    0  501    0 +0.0000000000e+00 +0.0000000000e+00 +1.9177643956e+03 1.9177643956e+03 0.0000000000e+00 0.0000e+00 -1.0000e+00
       -2 -1    0    0    0  501 -0.0000000000e+00 -0.0000000000e+00 -1.5754941955e+02 1.5754941955e+02 0.0000000000e+00 0.0000e+00 1.0000e+00
      -13  1    1    2    0    0 +1.3567297932e+02 +4.3395742390e+02 +1.4632294679e+03 1.5322423695e+03 0.0000000000e+00 0.0000e+00 1.0000e+00
       13  1    1    2    0    0 -1.3567297932e+02 -4.3395742390e+02 +2.9698550819e+02 5.4307144571e+02 0.0000000000e+00 0.0000e+00 -1.0000e+00
<mgrwt>
<rscale>  0 0.10993501E+04</rscale>
<asrwt>0</asrwt>
<pdfrwt beam="1">  1        2 0.29504066E+00 0.10993501E+04</pdfrwt>
<pdfrwt beam="2">  1       -2 0.24238374E-01 0.10993501E+04</pdfrwt>
<totfact> 0.13238715E+02</totfact>
</mgrwt>
<rwgt>
<wgt id='morphing_basis_vector_1'> +2.1446256e-04 </wgt>
<wgt id='morphing_basis_vector_2'> +2.2549312e-04 </wgt>
<wgt id='morphing_basis_vector_3'> +2.1323032e-04 </wgt>
<wgt id='morphing_basis_vector_4'> +4.8062376e-05 </wgt>
<wgt id='morphing_basis_vector_5'> +1.7010637e-04 </wgt>
</rwgt>
</event>
<event>
 4      1 +7.8865000e-07 1.21651700e+03 7.81860800e-03 8.50167400e-02
        2 -1    0    0  501    0 +0.0000000000e+00 +0.0000000000e+00 +7.2807158492e+02 7.2807158492e+02 0.0000000000e+00 0.0000e+00 1.0000e+00
       -2 -1    0    0    0  501 -0.0000000000e+00 -0.0000000000e+00 -5.0816228811e+02 5.0816228811e+02 0.0000000000e+00 0.0000e+00 -1.0000e+00
      -13  1    1    2    0    0 -1.8476033292e+02 -5.7373868385e+02 +1.9292389442e+02 6.3287604395e+02 0.0000000000e+00 0.0000e+00 -1.0000e+00
       13  1    1    2    0    0 +1.8476033292e+02 +5.7373868385e+02 +2.6985402386e+01 6.0335782908e+02 0.0000000000e+00 0.0000e+00 1.0000e+00
<mgrwt>
<rscale>  0 0.12165172E+04</rscale>
<asrwt>0</asrwt>
<pdfrwt beam="1">  1        2 0.11201101E+00 0.12165172E+04</pdfrwt>
<pdfrwt beam="2">  1       -2 0.78178813E-01 0.12165172E+04</pdfrwt>
<totfact> 0.70103151E+01</totfact>
</mgrwt>
<rwgt>
<wgt id='morphing_basis_vector_1'> +2.7393434e-04 </wgt>
<wgt id='morphing_basis_vector_2'> +2.1099890e-04 </wgt>
<wgt id='morphing_basis_vector_3'> +2.7726918e-04 </wgt>
<wgt id='morphing_basis_vector_4'> +1.4274022e-04 </wgt>
<wgt id='morphing_basis_vector_5'> +2.6599058e-04 </wgt>
</rwgt>
</event>
<event>
 4      1 +7.8865000e-07 1.11102100e+03 7.81860800e-03 8.58530700e-02
        2 -1    0    0  501    0 +0.0000000000e+00 +0.0000000000e+00 +1.9499618734e+02 1.9499618734e+02 0.0000000000e+00 0.0000e+00 -1.0000e+00
       -2 -1    0    0    0  501 -0.0000000000e+00 -0.0000000000e+00 -1.5825523116e+03 1.5825523116e+03 0.0000000000e+00 0.0000e+00 1.0000e+00
      -13  1    1    2    0    0 +9.9205171779e+01 +3.8068584001e+02 -1.3212834732e+03 1.3786055968e+03 0.0000000000e+00 0.0000e+00 1.0000e+00
       13  1    1    2    0    0 -9.9205171779e+01 -3.8068584001e+02 -6.6272651034e+01 3.9894290214e+02 0.0000000000e+00 0.0000e+00 -1.0000e+00
<mgrwt>
<rscale>  0 0.11110206E+04</rscale>
<asrwt>0</asrwt>
<pdfrwt beam="1">  1        2 0.29999414E-01 0.11110206E+04</pdfrwt>
<pdfrwt beam="2">  1       -2 0.24346958E+00 0.11110206E+04</pdfrwt>
<totfact> 0.12651790E+01</totfact>
</mgrwt>
<rwgt>
<wgt id='morphing_basis_vector_1'> +1.8416590e-04 </wgt>
<wgt id='morphing_basis_vector_2'> +1.1731268e-04 </wgt>
<wgt id='morphing_basis_vector_3'> +1.8168157e-04 </wgt>
<wgt id='morphing_basis_vector_4'> +1.1448643e-04 </wgt>
<wgt id='morphing_basis_vector_5'> +1.8209453e-04 </wgt>
</rwgt>
</event>
<event>
 4      1 +7.8865000e-07 1.13504600e+03 7.81860800e-03 8.56542600e-02
        2 -1    0    0  501    0 +0.0000000000e+00 +0.0000000000e+00 +4.4821156534e+02 4.4821156534e+02 0.0000000000e+00 0.0000e+00 -1.0000e+00
       -2 -1    0    0    0  501 -0.0000000000e+00 -0.0000000000e+00 -7.1859444539e+02 7.1859444539e+02 0.0000000000e+00 0.0000e+00 1.0000e+00
      -13  1    1    2    0    0 -2.1021985102e+02 -5.1060295376e+02 -2.6991025550e+02 6.1462127215e+02 0.0000000000e+00 0.0000e+00 1.0000e+00
       13  1    1    2    0    0 +2.1021985102e+02 +5.1060295376e+02 -4.7262455289e-01 5.5218473859e+02 0.0000000000e+00 0.0000e+00 -1.0000e+00
<mgrwt>
<rscale>  0 0.11350460E+04</rscale>
<asrwt>0</asrwt>
<pdfrwt beam="1">  1        2 0.68955626E-01 0.11350460E+04</pdfrwt>
<pdfrwt beam="2">  1       -2 0.11055299E+00 0.11350460E+04</pdfrwt>
<totfact> 0.54919252E+01</totfact>
</mgrwt>
<rwgt>
<wgt id='morphing_basis_vector_1'> +2.0231194e-04 </wgt>
<wgt id='morphing_basis_vector_2'> +1.3572055e-04 </wgt>
<wgt id='morphing_basis_vector_3'> +2.0072890e-04 </wgt>
<wgt id='morphing_basis_vector_4'> +1.2080838e-04 </wgt>
<wgt id='morphing_basis_vector_5'> +1.9920159e-04 </wgt>
</rwgt>
</event>
<event>
 4      1 +7.8865000e-07 1.27633200e+03 7.81860800e-03 8.45812200e-02
        2 -1    0    0  501    0 +0.0000000000e+00 +0.0000000000e+00 +1.3707884107e+03 1.3707884107e+03 0.0000000000e+00 0.0000e+00 -1.0000e+00
       -2 -1    0    0    0  501 -0.0000000000e+00 -0.0000000000e+00 -2.9709628844e+02 2.9709628844e+02 0.0000000000e+00 0.0000e+00 1.0000e+00
      -13  1    1    2    0    0 +6.1216375499e+02 +2.3851846676e+01 +3.0329140564e+02 6.8359275175e+02 0.0000000000e+00 0.0000e+00 1.0000e+00
       13  1    1    2    0    0 -6.1216375499e+02 -2.3851846676e+01 +7.7040071661e+02 9.8429194737e+02 0.0000000000e+00 0.0000e+00 -1.0000e+00
<mgrwt>
<rscale>  0 0.12763325E+04</rscale>
<asrwt>0</asrwt>
<pdfrwt beam="1">  1        2 0.21089052E+00 0.12763325E+04</pdfrwt>
<pdfrwt beam="2">  1       -2 0.45707122E-01 0.12763325E+04</pdfrwt>
<totfact> 0.83616686E+01</totfact>
</mgrwt>
<rwgt>
<wgt id='morphing_basis_vector_1'> +3.1453934e-04 </wgt>
<wgt id='morphing_basis_vector_2'> +2.1163049e-04 </wgt>
<wgt id='morphing_basis_vector_3'> +3.1932545e-04 </wgt>
<wgt id='morphing_basis_vector_4'> +1.9959564e-04 </wgt>
<wgt id='morphing_basis_vector_5'> +3.2732422e-04 </wgt>
</rwgt>
</event>
<event>
 4      1 +7.8865000e-07 1.08905200e+03 7.81860800e-03 8.60394400e-02
        2 -1    0    0  501    0 +0.0000000000e+00 +0.0000000000e+00 +9.4146598779e+02 9.4146598779e+02 0.0000000000e+00 0.0000e+00 1.0000e+00
       -2 -1    0    0    0  501 -0.0000000000e+00 -0.0000000000e+00 -3.1494368561e+02 3.1494368561e+02 0.0000000000e+00 0.0000e+00 -1.0000e+00
      -13  1    1    2    0    0 +2.0204993886e+02 +3.9177736639e+02 +6.8206675479e+02 8.1211374856e+02 0.0000000000e+00 0.0000e+00 1.0000e+00
       13  1    1    2    0    0 -2.0204993886e+02 -3.9177736639e+02 -5.5544452611e+01 4.4429592483e+02 0.0000000000e+00 0.0000e+00 -1.0000e+00
<mgrwt>
<rscale>  0 0.10890524E+04</rscale>
<asrwt>0</asrwt>
<pdfrwt beam="1">  1        2 0.14484092E+00 0.10890524E+04</pdfrwt>
<pdfrwt beam="2">  1       -2 0.48452875E-01 0.10890524E+04</pdfrwt>
<totfact> 0.13628670E+02</totfact>
</mgrwt>
<rwgt>
<wgt id='morphing_basis_vector_1'> +2.0929073e-04 </wgt>
<wgt id='morphing_basis_vector_2'> +2.2438897e-04 </wgt>
<wgt id='morphing_basis_vector_3'> +2.0744202e-04 </wgt>
<wgt id='morphing_basis_vector_4'> +4.2531381e-05 </wgt>
<wgt id='morphing_basis_vector_5'> +1.6317816e-04 </wgt>
</rwgt>
</event>
<event>
 4      1 +7.8865000e-07 1.09300800e+03 7.81860800e-03 8.60055500e-02
        2 -1    0    0  501    0 +0.0000000000e+00 +0.0000000000e+00 +7.0198487457e+02 7.0198487457e+02 0.0000000000e+00 0.0000e+00 -1.0000e+00
       -2 -1    0    0    0  501 -0.0000000000e+00 -0.0000000000e+00 -4.2545987802e+02 4.2545987802e+02 0.0000000000e+00 0.0000e+00 1.0000e+00
      -13  1    1    2    0    0 -5.2272065041e+02 -1.5889503140e+02 +1.2435092689e+02 5.6031032686e+02 0.0000000000e+00 0.0000e+00 1.0000e+00
       13  1    1    2    0    0 +5.2272065041e+02 +1.5889503140e+02 +1.5217406967e+02 5.6713442573e+02 0.0000000000e+00 0.0000e+00 -1.0000e+00
<mgrwt>
<rscale>  0 0.10930076E+04</rscale>
<asrwt>0</asrwt>
<pdfrwt beam="1">  1        2 0.10799767E+00 0.10930076E+04</pdfrwt>
<pdfrwt beam="2">  1       -2 0.65455366E-01 0.10930076E+04</pdfrwt>
<totfact> 0.10867965E+02</totfact>
</mgrwt>
<rwgt>
<wgt id='morphing_basis_vector_1'> +1.7870840e-04 </wgt>
<wgt id='morphing_basis_vector_2'> +1.2664132e-04 </wgt>
<wgt id='morphing_basis_vector_3'> +1.7595044e-04 </wgt>
<wgt id='morphing_basis_vector_4'> +9.7829979e-05 </wgt>
<wgt id='morphing_basis_vector_5'> +1.6922128e-04 </wgt>
</rwgt>
</event>
<event>
 4      1 +7.8865000e-07 1.07259500e+03 7.81860800e-03 8.61820500e-02
        2 -1    0    0  501    0 +0.0000000000e+00 +0.0000000000e+00 +9.0035288777e+02 9.0035288777e+02 0.0000000000e+00 0.0000e+00 -1.0000e+00
       -2 -1    0    0    0  501 -0.0000000000e+00 -0.0000000000e+00 -3.1944720984e+02 3.1944720984e+02 0.0000000000e+00 0.0000e+00 1.0000e+00
      -13  1    1    2    0    0 -2.6429096859e+02 +4.2227515048e+01 -2.3806768563e+02 3.5820259916e+02 0.0000000000e+00 0.0000e+00 1.0000e+00
       13  1    1    2    0    0 +2.6429096859e+02 -4.2227515048e+01 +8.1897336356e+02 8.6159749845e+02 0.0000000000e+00 0.0000e+00 -1.0000e+00
<mgrwt>
<rscale>  0 0.10725954E+04</rscale>
<asrwt>0</asrwt>
<pdfrwt beam="1">  1        2 0.13851583E+00 0.10725954E+04</pdfrwt>
<pdfrwt beam="2">  1       -2 0.49145725E-01 0.10725954E+04</pdfrwt>
<totfact> 0.14109806E+02</totfact>
</mgrwt>
<rwgt>
<wgt id='morphing_basis_vector_1'> +1.6128737e-04 </wgt>
<wgt id='morphing_basis_vector_2'> +1.0189824e-04 </wgt>
<wgt id='morphing_basis_vector_3'> +1.5785707e-04 </wgt>
<wgt id='morphing_basis_vector_4'> +9.8780495e-05 </wgt>
<wgt id='morphing_basis_vector_5'> +1.5662180e-04 </wgt>
</rwgt>
</event>
<event>
 4      1 +7.8865000e-07 1.16297400e+03 7.81860800e-03 8.54295400e-02
        2 -1    0    0  501    0 +0.0000000000e+00 +0.0000000000e+00 +6.0069029480e+02 6.0069029480e+02 0.0000000000e+00 0.0000e+00 -1.0000e+00
       -2 -1    0    0    0  501 -0.0000000000e+00 -0.0000000000e+00 -5.6289717569e+02 5.6289717569e+02 0.0000000000e+00 0.0000e+00 1.0000e+00
      -13  1    1    2    0    0 -2.4633499552e+02 -9.4066668830e+01 -4.9964085988e+02 5.6495172985e+02 0.0000000000e+00 0.0000e+00 1.0000e+00
       13  1    1    2    0    0 +2.4633499552e+02 +9.4066668830e+01 +5.3743397898e+02 5.9863574064e+02 0.0000000000e+00 0.0000e+00 -1.0000e+00
<mgrwt>
<rscale>  0 0.11629736E+04</rscale>
<asrwt>0</asrwt>
<pdfrwt beam="1">  1        2 0.92413892E-01 0.11629736E+04</pdfrwt>
<pdfrwt beam="2">  1       -2 0.86599565E-01 0.11629736E+04</pdfrwt>
<totfact> 0.70314444E+01</totfact>
</mgrwt>
<rwgt>
<wgt id='morphing_basis_vector_1'> +2.1846392e-04 </wgt>
<wgt id='morphing_basis_vector_2'> +1.3939435e-04 </wgt>
<wgt id='morphing_basis_vector_3'> +2.1756155e-04 </wgt>
<wgt id='morphing_basis_vector_4'> +1.3938158e-04 </wgt>
<wgt id='morphing_basis_vector_5'> +2.2126530e-04 </wgt>
</rwgt>
</event>
<event>
 4      1 +7.8865000e-07 1.21291800e+03 7.81860800e-03 8.50437800e-02
        2 -1    0    0  501    0 +0.0000000000e+00 +0.0000000000e+00 +1.6070530628e+03 1.6070530628e+03 0.0000000000e+00 0.0000e+00 -1.0000e+00
       -2 -1    0    0    0  501 -0.0000000000e+00 -0.0000000000e+00 -2.2886155484e+02 2.2886155484e+02 0.0000000000e+00 0.0000e+00 1.0000e+00
      -13  1    1    2    0    0 +6.9458836166e+01 -5.3760469174e+02 +2.7748371382e+02 6.0896678558e+02 0.0000000000e+00 0.0000e+00 1.0000e+00
       13  1    1    2    0    0 -6.9458836166e+01 +5.3760469174e+02 +1.1007077942e+03 1.2269478321e+03 0.0000000000e+00 0.0000e+00 -1.0000e+00
<mgrwt>
<rscale>  0 0.12129182E+04</rscale>
<asrwt>0</asrwt>
<pdfrwt beam="1">  1        2 0.24723893E+00 0.12129182E+04</pdfrwt>
<pdfrwt beam="2">  1       -2 0.35209471E-01 0.12129182E+04</pdfrwt>
<totfact> 0.10094925E+02</totfact>
</mgrwt>
<rwgt>
<wgt id='morphing_basis_vector_1'> +2.5751762e-04 </wgt>
<wgt id='morphing_basis_vector_2'> +1.6848186e-04 </wgt>
<wgt id='morphing_basis_vector_3'> +2.5874012e-04 </wgt>
<wgt id='morphing_basis_vector_4'> +1.6400677e-04 </wgt>
<wgt id='morphing_basis_vector_5'> +2.6425446e-04 </wgt>
</rwgt>
</event>
<event>
 4      1 +7.8865000e-07 1.07297300e+03 7.81860800e-03 8.61787400e-02
        2 -1    0    0  501    0 +0.0000000000e+00 +0.0000000000e+00 +2.6821720974e+03 2.6821720974e+03 0.0000000000e+00 0.0000e+00 -1.0000e+00
       -2 -1    0    0    0  501 -0.0000000000e+00 -0.0000000000e+00 -1.0730772802e+02 1.0730772802e+02 0.0000000000e+00 0.0000e+00 1.0000e+00
      -13  1    1    2    0    0 +4.5237911459e+02 +2.7060775096e+02 +1.0282056256e+03 1.1554575833e+03 0.0000000000e+00 0.0000e+00 1.0000e+00
       13  1    1    2    0    0 -4.5237911459e+02 -2.7060775096e+02 +1.5466587438e+03 1.6340222422e+03 0.0000000000e+00 0.0000e+00 -1.0000e+00
<mgrwt>
<rscale>  0 0.10729731E+04</rscale>
<asrwt>0</asrwt>
<pdfrwt beam="1">  1        2 0.41264181E+00 0.10729731E+04</pdfrwt>
<pdfrwt beam="2">  1       -2 0.16508883E-01 0.10729731E+04</pdfrwt>
<totfact> 0.91498956E+01</totfact>
</mgrwt>
<rwgt>
<wgt id='morphing_basis_vector_1'> +1.6434696e-04 </wgt>
<wgt id='morphing_basis_vector_2'> +1.1063128e-04 </wgt>
<wgt id='morphing_basis_vector_3'> +1.6096605e-04 </wgt>
<wgt id='morphing_basis_vector_4'> +9.4326027e-05 </wgt>
<wgt id='morphing_basis_vector_5'> +1.5656792e-04 </wgt>
</rwgt>
</event>
<event>
 4      1 +7.8865000e-07 1.14378500e+03 7.81860800e-03 8.55832100e-02
        2 -1    0    0  501    0 +0.0000000000e+00 +0.0000000000e+00 +1.9785248340e+03 1.9785248340e+03 0.0000000000e+00 0.0000e+00 1.0000e+00
       -2 -1    0    0    0  501 -0.0000000000e+00 -0.0000000000e+00 -1.6530556624e+02 1.6530556624e+02 0.0000000000e+00 0.0000e+00 -1.0000e+00
      -13  1    1    2    0    0 +3.9263429159e+02 -3.4537254337e+02 +4.7260101236e+02 7.0483728444e+02 0.0000000000e+00 0.0000e+00 -1.0000e+00
       13  1    1    2    0    0 -3.9263429159e+02 +3.4537254337e+02 +1.3406182554e+03 1.4389931158e+03 0.0000000000e+00 0.0000e+00 1.0000e+00
<mgrwt>
<rscale>  0 0.11437852E+04</rscale>
<asrwt>0</asrwt>
<pdfrwt beam="1">  1        2 0.30438842E+00 0.11437852E+04</pdfrwt>
<pdfrwt beam="2">  1       -2 0.25431627E-01 0.11437852E+04</pdfrwt>
<totfact> 0.11235397E+02</totfact>
</mgrwt>
<rwgt>
<wgt id='morphing_basis_vector_1'> +2.0660876e-04 </wgt>
<wgt id='morphing_basis_vector_2'> +1.3492324e-04 </wgt>
<wgt id='morphing_basis_vector_3'> +2.0519087e-04 </wgt>
<wgt id='morphing_basis_vector_4'> +1.2752454e-04 </wgt>
<wgt id='morphing_basis_vector_5'> +2.0599475e-04 </wgt>
</rwgt>
</event>
<event>
 4      1 +7.8865000e-07 1.24066800e+03 7.81860800e-03 8.48378000e-02
        2 -1    0    0  501    0 +0.0000000000e+00 +0.0000000000e+00 +3.1087468784e+03 3.1087468784e+03 0.0000000000e+00 0.0000e+00 1.0000e+00
       -2 -1    0    0    0  501 -0.0000000000e+00 -0.0000000000e+00 -1.2378430950e+02 1.2378430950e+02 0.0000000000e+00 0.0000e+00 -1.0000e+00
      -13  1    1    2    0    0 -4.1398349208e+02 -2.8662019243e+02 +5.4844745789e+02 7.4453212187e+02 0.0000000000e+00 0.0000e+00 -1.0000e+00
       13  1    1    2    0    0 +4.1398349208e+02 +2.8662019243e+02 +2.4365151110e+03 2.4879990660e+03 0.0000000000e+00 0.0000e+00 1.0000e+00
<mgrwt>
<rscale>  0 0.12406677E+04</rscale>
<asrwt>0</asrwt>
<pdfrwt beam="1">  1        2 0.47826869E+00 0.12406677E+04</pdfrwt>
<pdfrwt beam="2">  1       -2 0.19043742E-01 0.12406677E+04</pdfrwt>
<totfact> 0.38225082E+01</totfact>
</mgrwt>
<rwgt>
<wgt id='morphing_basis_vector_1'> +2.7975305e-04 </wgt>
<wgt id='morphing_basis_vector_2'> +1.8152116e-04 </wgt>
<wgt id='morphing_basis_vector_3'> +2.8214055e-04 </wgt>
<wgt id='morphing_basis_vector_4'> +1.8183425e-04 </wgt>
<wgt id='morphing_basis_vector_5'> +2.9083236e-04 </wgt>
</rwgt>
</event>
<event>
 4      1 +7.8865000e-07 1.23871900e+03 7.81860800e-03 8.48520800e-02
        2 -1    0    0  501    0 +0.0000000000e+00 +0.0000000000e+00 +1.5649421933e+03 1.5649421933e+03 0.0000000000e+00 0.0000e+00 1.0000e+00
       -2 -1    0    0    0  501 -0.0000000000e+00 -0.0000000000e+00 -2.4512490550e+02 2.4512490550e+02 0.0000000000e+00 0.0000e+00 -1.0000e+00
      -13  1    1    2    0    0 -2.3543386417e+02 +2.9748268621e+02 -5.5474731458e+01 3.8340904895e+02 0.0000000000e+00 0.0000e+00 -1.0000e+00
       13  1    1    2    0    0 +2.3543386417e+02 -2.9748268621e+02 +1.3752920193e+03 1.4266580499e+03 0.0000000000e+00 0.0000e+00 1.0000e+00
<mgrwt>
<rscale>  0 0.12387192E+04</rscale>
<asrwt>0</asrwt>
<pdfrwt beam="1">  1        2 0.24076033E+00 0.12387192E+04</pdfrwt>
<pdfrwt beam="2">  1       -2 0.37711525E-01 0.12387192E+04</pdfrwt>
<totfact> 0.93752501E+01</totfact>
</mgrwt>
<rwgt>
<wgt id='morphing_basis_vector_1'> +2.7748061e-04 </wgt>
<wgt id='morphing_basis_vector_2'> +1.7858673e-04 </wgt>
<wgt id='morphing_basis_vector_3'> +2.7967624e-04 </wgt>
<wgt id='morphing_basis_vector_4'> +1.8169510e-04 </wgt>
<wgt id='morphing_basis_vector_5'> +2.8898413e-04 </wgt>
</rwgt>
</event>
<event>
 4      1 +7.8865000e-07 1.12285900e+03 7.81860800e-03 8.57544700e-02
        2 -1    0    0  501    0 +0.0000000000e+00 +0.0000000000e+00 +6.5106338009e+02 6.5106338009e+02 0.0000000000e+00 0.0000e+00 -1.0000e+00
       -2 -1    0    0    0  501 -0.0000000000e+00 -0.0000000000e+00 -4.8413593962e+02 4.8413593962e+02 0.0000000000e+00 0.0000e+00 1.0000e+00
      -13  1    1    2    0    0 +1.5947944648e+02 +2.6913536439e+02 -3.8785241598e+02 4.9829412478e+02 0.0000000000e+00 0.0000e+00 1.0000e+00
       13  1    1    2    0    0 -1.5947944648e+02 -2.6913536439e+02 +5.5477985645e+02 6.3690519493e+02 0.0000000000e+00 0.0000e+00 -1.0000e+00
<mgrwt>
<rscale>  0 0.11228592E+04</rscale>
<asrwt>0</asrwt>
<pdfrwt beam="1">  1        2 0.10016360E+00 0.11228592E+04</pdfrwt>
<pdfrwt beam="2">  1       -2 0.74482452E-01 0.11228592E+04</pdfrwt>
<totfact> 0.90103533E+01</totfact>
</mgrwt>
<rwgt>
<wgt id='morphing_basis_vector_1'> +1.9147699e-04 </wgt>
<wgt id='morphing_basis_vector_2'> +1.2175075e-04 </wgt>
<wgt id='morphing_basis_vector_3'> +1.8931354e-04 </wgt>
<wgt id='morphing_basis_vector_4'> +1.2003175e-04 </wgt>
<wgt id='morphing_basis_vector_5'> +1.9054374e-04 </wgt>
</rwgt>
</event>
<event>
 4      1 +7.8865000e-07 1.08570200e+03 7.81860800e-03 8.60682600e-02
        2 -1    0    0  501    0 +0.0000000000e+00 +0.0000000000e+00 +1.4600620240e+03 1.4600620240e+03 0.0000000000e+00 0.0000e+00 1.0000e+00
       -2 -1    0    0    0  501 -0.0000000000e+00 -0.0000000000e+00 -2.0183200948e+02 2.0183200948e+02 0.0000000000e+00 0.0000e+00 -1.0000e+00
      -13  1    1    2    0    0 -1.3054445349e+01 -2.9301682639e+02 -7.0099049391e+01 3.0156782954e+02 0.0000000000e+00 0.0000e+00 -1.0000e+00
       13  1    1    2    0    0 +1.3054445349e+01 +2.9301682639e+02 +1.3283290639e+03 1.3603262040e+03 0.0000000000e+00 0.0000e+00 1.0000e+00
<mgrwt>
<rscale>  0 0.10857021E+04</rscale>
<asrwt>0</asrwt>
<pdfrwt beam="1">  1        2 0.22462492E+00 0.10857021E+04</pdfrwt>
<pdfrwt beam="2">  1       -2 0.31051079E-01 0.10857021E+04</pdfrwt>
<totfact> 0.15426510E+02</totfact>
</mgrwt>
<rwgt>
<wgt id='morphing_basis_vector_1'> +1.6878866e-04 </wgt>
<wgt id='morphing_basis_vector_2'> +1.0684538e-04 </wgt>
<wgt id='morphing_basis_vector_3'> +1.6565639e-04 </wgt>
<wgt id='morphing_basis_vector_4'> +1.0401576e-04 </wgt>
<wgt id='morphing_basis_vector_5'> +1.6499992e-04 </wgt>
</rwgt>
</event>
<event>
 4      1 +7.8865000e-07 1.24975800e+03 7.81860800e-03 8.47715500e-02
        2 -1    0    0  501    0 +0.0000000000e+00 +0.0000000000e+00 +1.0861409770e+03 1.0861409770e+03 0.0000000000e+00 0.0000e+00 -1.0000e+00
       -2 -1    0    0    0  501 -0.0000000000e+00 -0.0000000000e+00 -3.5950543747e+02 3.5950543747e+02 0.0000000000e+00 0.0000e+00 1.0000e+00
      -13  1    1    2    0    0 +3.2700672668e+02 -4.6309939477e+02 +5.9292478940e+01 5.7000881291e+02 0.0000000000e+00 0.0000e+00 1.0000e+00
       13  1    1    2    0    0 -3.2700672668e+02 +4.6309939477e+02 +6.6734306055e+02 8.7563760152e+02 0.0000000000e+00 0.0000e+00 -1.0000e+00
<mgrwt>
<rscale>  0 0.12497577E+04</rscale>
<asrwt>0</asrwt>
<pdfrwt beam="1">  1        2 0.16709861E+00 0.12497577E+04</pdfrwt>
<pdfrwt beam="2">  1       -2 0.55308529E-01 0.12497577E+04</pdfrwt>
<totfact> 0.84336637E+01</totfact>
</mgrwt>
<rwgt>
<wgt id='morphing_basis_vector_1'> +2.8870932e-04 </wgt>
<wgt id='morphing_basis_vector_2'> +1.9004074e-04 </wgt>
<wgt id='morphing_basis_vector_3'> +2.9172858e-04 </wgt>
<wgt id='morphing_basis_vector_4'> +1.8559234e-04 </wgt>
<wgt id='morphing_basis_vector_5'> +2.9978762e-04 </wgt>
</rwgt>
</event>
<event>
 4      1 +7.8865000e-07 1.24911100e+03 7.81860800e-03 8.47762500e-02
        2 -1    0    0  501    0 +0.0000000000e+00 +0.0000000000e+00 +7.2318811781e+02 7.2318811781e+02 0.0000000000e+00 0.0000e+00 -1.0000e+00
       -2 -1    0    0    0  501 -0.0000000000e+00 -0.0000000000e+00 -5.3937482764e+02 5.3937482764e+02 0.0000000000e+00 0.0000e+00 1.0000e+00
      -13  1    1    2    0    0 -4.3391538301e+02 +1.2975311987e+02 -3.4278415428e+02 5.6799595787e+02 0.0000000000e+00 0.0000e+00 1.0000e+00
       13  1    1    2    0    0 +4.3391538301e+02 -1.2975311987e+02 +5.2659744446e+02 6.9456698758e+02 0.0000000000e+00 0.0000e+00 -1.0000e+00
<mgrwt>
<rscale>  0 0.12491108E+04</rscale>
<asrwt>0</asrwt>
<pdfrwt beam="1">  1        2 0.11125971E+00 0.12491108E+04</pdfrwt>
<pdfrwt beam="2">  1       -2 0.82980743E-01 0.12491108E+04</pdfrwt>
<totfact> 0.61602699E+01</totfact>
</mgrwt>
<rwgt>
<wgt id='morphing_basis_vector_1'> +2.8665663e-04 </wgt>
<wgt id='morphing_basis_vector_2'> +1.8520237e-04 </wgt>
<wgt id='morphing_basis_vector_3'> +2.8939224e-04 </wgt>
<wgt id='morphing_basis_vector_4'> +1.8778405e-04 </wgt>
<wgt id='morphing_basis_vector_5'> +2.9931402e-04 </wgt>
</rwgt>
</event>
<event>
 4      1 +7.8865000e-07 1.14691900e+03 7.81860800e-03 8.55579000e-02
        2 -1    0    0  501    0 +0.0000000000e+00 +0.0000000000e+00 +2.6027839224e+03 2.6027839224e+03 0.0000000000e+00 0.0000e+00 -1.0000e+00
       -2 -1    0    0    0  501 -0.0000000000e+00 -0.0000000000e+00 -1.2634761892e+02 1.2634761892e+02 0.0000000000e+00 0.0000e+00 1.0000e+00
      -13  1    1    2    0    0 -5.2961776267e+02 +1.4946276170e+02 +8.5437154108e+02 1.0162602137e+03 0.0000000000e+00 0.0000e+00 1.0000e+00
       13  1    1    2    0    0 +5.2961776267e+02 -1.4946276170e+02 +1.6220647624e+03 1.7128713277e+03 0.0000000000e+00 0.0000e+00 -1.0000e+00
<mgrwt>
<rscale>  0 0.11469186E+04</rscale>
<asrwt>0</asrwt>
<pdfrwt beam="1">  1        2 0.40042825E+00 0.11469186E+04</pdfrwt>
<pdfrwt beam="2">  1       -2 0.19438097E-01 0.11469186E+04</pdfrwt>
<totfact> 0.77436941E+01</totfact>
</mgrwt>
<rwgt>
<wgt id='morphing_basis_vector_1'> +2.0980806e-04 </wgt>
<wgt id='morphing_basis_vector_2'> +1.3955636e-04 </wgt>
<wgt id='morphing_basis_vector_3'> +2.0858720e-04 </wgt>
<wgt id='morphing_basis_vector_4'> +1.2723196e-04 </wgt>
<wgt id='morphing_basis_vector_5'> +2.0828953e-04 </wgt>
</rwgt>
</event>
<event>
 4      1 +7.8865000e-07 1.27787900e+03 7.81860800e-03 8.45702900e-02
        2 -1    0    0  501    0 +0.0000000000e+00 +0.0000000000e+00 +7.3348294591e+02 7.3348294591e+02 0.0000000000e+00 0.0000e+00 -1.0000e+00
       -2 -1    0    0    0  501 -0.0000000000e+00 -0.0000000000e+00 -5.5658219607e+02 5.5658219607e+02 0.0000000000e+00 0.0000e+00 1.0000e+00
      -13  1    1    2    0    0 +3.3680316455e+02 +5.1493783841e+02 +2.6227307620e+02 6.6886808533e+02 0.0000000000e+00 0.0000e+00 -1.0000e+00
       13  1    1    2    0    0 -3.3680316455e+02 -5.1493783841e+02 -8.5372326354e+01 6.2119705665e+02 0.0000000000e+00 0.0000e+00 1.0000e+00
<mgrwt>
<rscale>  0 0.12778788E+04</rscale>
<asrwt>0</asrwt>
<pdfrwt beam="1">  1        2 0.11284353E+00 0.12778788E+04</pdfrwt>
<pdfrwt beam="2">  1       -2 0.85628030E-01 0.12778788E+04</pdfrwt>
<totfact> 0.56189835E+01</totfact>
</mgrwt>
<rwgt>
<wgt id='morphing_basis_vector_1'> +3.4061557e-04 </wgt>
<wgt id='morphing_basis_vector_2'> +2.8642022e-04 </wgt>
<wgt id='morphing_basis_vector_3'> +3.5013640e-04 </wgt>
<wgt id='morphing_basis_vector_4'> +1.5717822e-04 </wgt>
<wgt id='morphing_basis_vector_5'> +3.2595635e-04 </wgt>
</rwgt>
</event>
<event>
 4      1 +7.8865000e-07 1.14672600e+03 7.81860800e-03 8.55594500e-02
        2 -1    0    0  501    0 +0.0000000000e+00 +0.0000000000e+00 +9.5477073851e+02 9.5477073851e+02 0.0000000000e+00 0.0000e+00 1.0000e+00
       -2 -1    0    0    0  501 -0.0000000000e+00 -0.0000000000e+00 -3.4431843473e+02 3.4431843473e+02 0.0000000000e+00 0.0000e+00 -1.0000e+00
      -13  1    1    2    0    0 -3.0351471710e+01 +5.7101430981e+02 +2.5761048039e+02 6.2716960501e+02 0.0000000000e+00 0.0000e+00 -1.0000e+00
       13  1    1    2    0    0 +3.0351471710e+01 -5.7101430981e+02 +3.5284182339e+02 6.7191956823e+02 0.0000000000e+00 0.0000e+00 1.0000e+00
<mgrwt>
<rscale>  0 0.11467261E+04</rscale>
<asrwt>0</asrwt>
<pdfrwt beam="1">  1        2 0.14688780E+00 0.11467261E+04</pdfrwt>
<pdfrwt beam="2">  1       -2 0.52972067E-01 0.11467261E+04</pdfrwt>
<totfact> 0.11169836E+02</totfact>
</mgrwt>
<rwgt>
<wgt id='morphing_basis_vector_1'> +2.1286242e-04 </wgt>
<wgt id='morphing_basis_vector_2'> +1.4905643e-04 </wgt>
<wgt id='morphing_basis_vector_3'> +2.1191056e-04 </wgt>
<wgt id='morphing_basis_vector_4'> +1.2179519e-04 </wgt>
<wgt id='morphing_basis_vector_5'> +2.0778750e-04 </wgt>
</rwgt>
</event>
<event>
 4      1 +7.8865000e-07 1.14312800e+03 7.81860800e-03 8.55885300e-02
        2 -1    0    0  501    0 +0.0000000000e+00 +0.0000000000e+00 +7.5551841067e+02 7.5551841067e+02 0.0000000000e+00 0.0000e+00 1.0000e+00
       -2 -1    0    0    0  501 -0.0000000000e+00 -0.0000000000e+00 -4.3239883983e+02 4.3239883983e+02 0.0000000000e+00 0.0000e+00 -1.0000e+00
      -13  1    1    2    0    0 -1.5969475926e+02 -3.1289578247e+01 -4.0781669313e+02 4.3908530952e+02 0.0000000000e+00 0.0000e+00 -1.0000e+00
       13  1    1    2    0    0 +1.5969475926e+02 +3.1289578247e+01 +7.3093626397e+02 7.4883194097e+02 0.0000000000e+00 0.0000e+00 1.0000e+00
<mgrwt>
<rscale>  0 0.11431278E+04</rscale>
<asrwt>0</asrwt>
<pdfrwt beam="1">  1        2 0.11623360E+00 0.11431278E+04</pdfrwt>
<pdfrwt beam="2">  1       -2 0.66522898E-01 0.11431278E+04</pdfrwt>
<totfact> 0.95532412E+01</totfact>
</mgrwt>
<rwgt>
<wgt id='morphing_basis_vector_1'> +2.0472785e-04 </wgt>
<wgt id='morphing_basis_vector_2'> +1.3030521e-04 </wgt>
<wgt id='morphing_basis_vector_3'> +2.0316864e-04 </wgt>
<wgt id='morphing_basis_vector_4'> +1.2961642e-04 </wgt>
<wgt id='morphing_basis_vector_5'> +2.0564963e-04 </wgt>
</rwgt>
</event>
<event>
 4      1 +7.8865000e-07 1.10196400e+03 7.81860800e-03 8.59293600e-02
        2 -1    0    0  501    0 +0.0000000000e+00 +0.0000000000e+00 +7.8615730948e+02 7.8615730948e+02 0.0000000000e+00 0.0000e+00 1.0000e+00
       -2 -1    0    0    0  501 -0.0000000000e+00 -0.0000000000e+00 -3.8615817248e+02 3.8615817248e+02 0.0000000000e+00 0.0000e+00 -1.0000e+00
      -13  1    1    2    0    0 -3.7543006348e+02 +3.7084245108e+02 +3.6857478211e+02 6.4367633644e+02 0.0000000000e+00 0.0000e+00 -1.0000e+00
       13  1    1    2    0    0 +3.7543006348e+02 -3.7084245108e+02 +3.1424354882e+01 5.2863914551e+02 0.0000000000e+00 0.0000e+00 1.0000e+00
<mgrwt>
<rscale>  0 0.11019638E+04</rscale>
<asrwt>0</asrwt>
<pdfrwt beam="1">  1        2 0.12094728E+00 0.11019638E+04</pdfrwt>
<pdfrwt beam="2">  1       -2 0.59408950E-01 0.11019638E+04</pdfrwt>
<totfact> 0.11519289E+02</totfact>
</mgrwt>
<rwgt>
<wgt id='morphing_basis_vector_1'> +1.9553494e-04 </wgt>
<wgt id='morphing_basis_vector_2'> +1.6469541e-04 </wgt>
<wgt id='morphing_basis_vector_3'> +1.9355978e-04 </wgt>
<wgt id='morphing_basis_vector_4'> +8.2764951e-05 </wgt>
<wgt id='morphing_basis_vector_5'> +1.7404098e-04 </wgt>
</rwgt>
</event>
<event>
 4      1 +7.8865000e-07 1.21338400e+03 7.81860800e-03 8.50402700e-02
        2 -1    0    0  501    0 +0.0000000000e+00 +0.0000000000e+00 +2.1849294512e+03 2.1849294512e+03 0.0000000000e+00 0.0000e+00 -1.0000e+00
       -2 -1    0    0    0  501 -0.0000000000e+00 -0.0000000000e+00 -1.6846093973e+02 1.6846093973e+02 0.0000000000e+00 0.0000e+00 1.0000e+00
      -13  1    1    2    0    0 -1.6680833255e+02 -5.3803364578e+02 +5.7121614553e+02 8.0224254980e+02 0.0000000000e+00 0.0000e+00 1.0000e+00
       13  1    1    2    0    0 +1.6680833255e+02 +5.3803364578e+02 +1.4452523660e+03 1.5511478412e+03 0.0000000000e+00 0.0000e+00 -1.0000e+00
<mgrwt>
<rscale>  0 0.12133841E+04</rscale>
<asrwt>0</asrwt>
<pdfrwt beam="1">  1        2 0.33614297E+00 0.12133841E+04</pdfrwt>
<pdfrwt beam="2">  1       -2 0.25917069E-01 0.12133841E+04</pdfrwt>
<totfact> 0.82757783E+01</totfact>
</mgrwt>
<rwgt>
<wgt id='morphing_basis_vector_1'> +2.5853518e-04 </wgt>
<wgt id='morphing_basis_vector_2'> +1.7066380e-04 </wgt>
<wgt id='morphing_basis_vector_3'> +2.5986964e-04 </wgt>
<wgt id='morphing_basis_vector_4'> +1.6316403e-04 </wgt>
<wgt id='morphing_basis_vector_5'> +2.6460815e-04 </wgt>
</rwgt>
</event>
<event>
 4      1 +7.8865000e-07 1.14328400e+03 7.81860800e-03 8.55872700e-02
        2 -1    0    0  501    0 +0.0000000000e+00 +0.0000000000e+00 +5.0318232720e+02 5.0318232720e+02 0.0000000000e+00 0.0000e+00 -1.0000e+00
       -2 -1    0    0    0  501 -0.0000000000e+00 -0.0000000000e+00 -6.4941597636e+02 6.4941597636e+02 0.0000000000e+00 0.0000e+00 1.0000e+00
      -13  1    1    2    0    0 +2.2610460334e+02 -5.1114030832e+02 -1.9403955928e+02 5.9164098658e+02 0.0000000000e+00 0.0000e+00 1.0000e+00
       13  1    1    2    0    0 -2.2610460334e+02 +5.1114030832e+02 +4.7805910118e+01 5.6095731698e+02 0.0000000000e+00 0.0000e+00 -1.0000e+00
<mgrwt>
<rscale>  0 0.11432841E+04</rscale>
<asrwt>0</asrwt>
<pdfrwt beam="1">  1        2 0.77412666E-01 0.11432841E+04</pdfrwt>
<pdfrwt beam="2">  1       -2 0.99910150E-01 0.11432841E+04</pdfrwt>
<totfact> 0.61751300E+01</totfact>
</mgrwt>
<rwgt>
<wgt id='morphing_basis_vector_1'> +2.0816234e-04 </wgt>
<wgt id='morphing_basis_vector_2'> +1.4039467e-04 </wgt>
<wgt id='morphing_basis_vector_3'> +2.0688580e-04 </wgt>
<wgt id='morphing_basis_vector_4'> +1.2411542e-04 </wgt>
<wgt id='morphing_basis_vector_5'> +2.0540157e-04 </wgt>
</rwgt>
</event>
<event>
 4      1 +7.8865000e-07 1.27263300e+03 7.81860800e-03 8.46074200e-02
        2 -1    0    0  501    0 +0.0000000000e+00 +0.0000000000e+00 +1.5666679810e+03 1.5666679810e+03 0.0000000000e+00 0.0000e+00 -1.0000e+00
       -2 -1    0    0    0  501 -0.0000000000e+00 -0.0000000000e+00 -2.5844583204e+02 2.5844583204e+02 0.0000000000e+00 0.0000e+00 1.0000e+00
      -13  1    1    2    0    0 +1.4873093287e+02 -3.5769707739e+02 -6.9845634482e+01 3.9363244559e+02 0.0000000000e+00 0.0000e+00 1.0000e+00
       13  1    1    2    0    0 -1.4873093287e+02 +3.5769707739e+02 +1.3780677834e+03 1.4314813674e+03 0.0000000000e+00 0.0000e+00 -1.0000e+00
<mgrwt>
<rscale>  0 0.12726332E+04</rscale>
<asrwt>0</asrwt>
<pdfrwt beam="1">  1        2 0.24102584E+00 0.12726332E+04</pdfrwt>
<pdfrwt beam="2">  1       -2 0.39760898E-01 0.12726332E+04</pdfrwt>
<totfact> 0.84572503E+01</totfact>
</mgrwt>
<rwgt>
<wgt id='morphing_basis_vector_1'> +3.0747793e-04 </wgt>
<wgt id='morphing_basis_vector_2'> +1.9844213e-04 </wgt>
<wgt id='morphing_basis_vector_3'> +3.1138101e-04 </wgt>
<wgt id='morphing_basis_vector_4'> +2.0352956e-04 </wgt>
<wgt id='morphing_basis_vector_5'> +3.2379757e-04 </wgt>
</rwgt>
</event>
<event>
 4      1 +7.8865000e-07 1.16633300e+03 7.81860800e-03 8.54029600e-02
        2 -1    0    0  501    0 +0.0000000000e+00 +0.0000000000e+00 +1.7672319521e+03 1.7672319521e+03 0.0000000000e+00 0.0000e+00 1.0000e+00
       -2 -1    0    0    0  501 -0.0000000000e+00 -0.0000000000e+00 -1.9243828051e+02 1.9243828051e+02 0.0000000000e+00 0.0000e+00 -1.0000e+00
      -13  1    1    2    0    0 +4.6843993111e+02 -4.2797832157e+01 +2.0823897445e+02 5.1442306906e+02 0.0000000000e+00 0.0000e+00 -1.0000e+00
       13  1    1    2    0    0 -4.6843993111e+02 +4.2797832157e+01 +1.3665546971e+03 1.4452471635e+03 0.0000000000e+00 0.0000e+00 1.0000e+00
<mgrwt>
<rscale>  0 0.11663328E+04</rscale>
<asrwt>0</asrwt>
<pdfrwt beam="1">  1        2 0.27188183E+00 0.11663328E+04</pdfrwt>
<pdfrwt beam="2">  1       -2 0.29605891E-01 0.11663328E+04</pdfrwt>
<totfact> 0.11269278E+02</totfact>
</mgrwt>
<rwgt>
<wgt id='morphing_basis_vector_1'> +2.2140231e-04 </wgt>
<wgt id='morphing_basis_vector_2'> +1.4261890e-04 </wgt>
<wgt id='morphing_basis_vector_3'> +2.2067372e-04 </wgt>
<wgt id='morphing_basis_vector_4'> +1.4016407e-04 </wgt>
<wgt id='morphing_basis_vector_5'> +2.2393076e-04 </wgt>
</rwgt>
</event>
<event>
 4      1 +7.8865000e-07 1.27622400e+03 7.81860800e-03 8.45819900e-02
        2 -1    0    0  501    0 +0.0000000000e+00 +0.0000000000e+00 +3.2690522652e+02 3.2690522652e+02 0.0000000000e+00 0.0000e+00 1.0000e+00
       -2 -1    0    0    0  501 -0.0000000000e+00 -0.0000000000e+00 -1.2455804509e+03 1.2455804509e+03 0.0000000000e+00 0.0000e+00 -1.0000e+00
      -13  1    1    2    0    0 +7.3847540837e+01 +5.9571445739e+02 -7.2605408041e+02 9.4206353380e+02 0.0000000000e+00 0.0000e+00 -1.0000e+00
       13  1    1    2    0    0 -7.3847540837e+01 -5.9571445739e+02 -1.9262114393e+02 6.3042214358e+02 0.0000000000e+00 0.0000e+00 1.0000e+00
<mgrwt>
<rscale>  0 0.12762237E+04</rscale>
<asrwt>0</asrwt>
<pdfrwt beam="1">  1        2 0.50293112E-01 0.12762237E+04</pdfrwt>
<pdfrwt beam="2">  1       -2 0.19162776E+00 0.12762237E+04</pdfrwt>
<totfact> 0.16233703E+01</totfact>
</mgrwt>
<rwgt>
<wgt id='morphing_basis_vector_1'> +3.1358232e-04 </wgt>
<wgt id='morphing_basis_vector_2'> +2.0899782e-04 </wgt>
<wgt id='morphing_basis_vector_3'> +3.1820175e-04 </wgt>
<wgt id='morphing_basis_vector_4'> +2.0103172e-04 </wgt>
<wgt id='morphing_basis_vector_5'> +3.2731239e-04 </wgt>
</rwgt>
</event>
<event>
 4      1 +7.8865000e-07 1.09936500e+03 7.81860800e-03 8.59514000e-02
        2 -1    0    0  501    0 +0.0000000000e+00 +0.0000000000e+00 +1.8664179212e+03 1.8664179212e+03 0.0000000000e+00 0.0000e+00 -1.0000e+00
       -2 -1    0    0    0  501 -0.0000000000e+00 -0.0000000000e+00 -1.6188799249e+02 1.6188799249e+02 0.0000000000e+00 0.0000e+00 1.0000e+00
      -13  1    1    2    0    0 +4.3797369261e+02 +3.0643556973e+02 +6.1579826740e+02 8.1543314866e+02 0.0000000000e+00 0.0000e+00 1.0000e+00
       13  1    1    2    0    0 -4.3797369261e+02 -3.0643556973e+02 +1.0887316614e+03 1.2128727651e+03 0.0000000000e+00 0.0000e+00 -1.0000e+00
<mgrwt>
<rscale>  0 0.10993646E+04</rscale>
<asrwt>0</asrwt>
<pdfrwt beam="1">  1        2 0.28714120E+00 0.10993646E+04</pdfrwt>
<pdfrwt beam="2">  1       -2 0.24905846E-01 0.10993646E+04</pdfrwt>
<totfact> 0.13492498E+02</totfact>
</mgrwt>
<rwgt>
<wgt id='morphing_basis_vector_1'> +1.7943535e-04 </wgt>
<wgt id='morphing_basis_vector_2'> +1.1986823e-04 </wgt>
<wgt id='morphing_basis_vector_3'> +1.7674412e-04 </wgt>
<wgt id='morphing_basis_vector_4'> +1.0551412e-04 </wgt>
<wgt id='morphing_basis_vector_5'> +1.7381001e-04 </wgt>
</rwgt>
</event>
<event>
 4      1 +7.8865000e-07 1.08638200e+03 7.81860800e-03 8.60624000e-02
        2 -1    0    0  501    0 +0.0000000000e+00 +0.0000000000e+00 +4.5506089249e+02 4.5506089249e+02 0.0000000000e+00 0.0000e+00 -1.0000e+00
       -2 -1    0    0    0  501 -0.0000000000e+00 -0.0000000000e+00 -6.4838877136e+02 6.4838877136e+02 0.0000000000e+00 0.0000e+00 1.0000e+00
      -13  1    1    2    0    0 -5.3655512551e+02 +2.7596083688e+01 -1.7794254486e+02 5.6596510124e+02 0.0000000000e+00 0.0000e+00 1.0000e+00
       13  1    1    2    0    0 +5.3655512551e+02 -2.7596083688e+01 -1.5385334009e+01 5.3748456262e+02 0.0000000000e+00 0.0000e+00 -1.0000e+00
<mgrwt>
<rscale>  0 0.10863818E+04</rscale>
<asrwt>0</asrwt>
<pdfrwt beam="1">  1        2 0.70009368E-01 0.10863818E+04</pdfrwt>
<pdfrwt beam="2">  1       -2 0.99752118E-01 0.10863818E+04</pdfrwt>
<totfact> 0.69792924E+01</totfact>
</mgrwt>
<rwgt>
<wgt id='morphing_basis_vector_1'> +1.7264285e-04 </wgt>
<wgt id='morphing_basis_vector_2'> +1.1753781e-04 </wgt>
<wgt id='morphing_basis_vector_3'> +1.6962516e-04 </wgt>
<wgt id='morphing_basis_vector_4'> +9.8661511e-05 </wgt>
<wgt id='morphing_basis_vector_5'> +1.6508412e-04 </wgt>
</rwgt>
</event>
<event>
 4      1 +7.8865000e-07 1.14349000e+03 7.81860800e-03 8.55856000e-02
        2 -1    0    0  501    0 +0.0000000000e+00 +0.0000000000e+00 +1.3859457930e+03 1.3859457930e+03 0.0000000000e+00 0.0000e+00 1.0000e+00
       -2 -1    0    0    0  501 -0.0000000000e+00 -0.0000000000e+00 -2.3586210255e+02 2.3586210255e+02 0.0000000000e+00 0.0000e+00 -1.0000e+00
      -13  1    1    2    0    0 -5.2602107925e+02 -8.2589068788e+01 +2.7966480542e+02 6.0144121366e+02 0.0000000000e+00 0.0000e+00 -1.0000e+00
       13  1    1    2    0    0 +5.2602107925e+02 +8.2589068788e+01 +8.7041888500e+02 1.0203666819e+03 0.0000000000e+00 0.0000e+00 1.0000e+00
<mgrwt>
<rscale>  0 0.11434896E+04</rscale>
<asrwt>0</asrwt>
<pdfrwt beam="1">  1        2 0.21322242E+00 0.11434896E+04</pdfrwt>
<pdfrwt beam="2">  1       -2 0.36286478E-01 0.11434896E+04</pdfrwt>
<totfact> 0.12765089E+02</totfact>
</mgrwt>
<rwgt>
<wgt id='morphing_basis_vector_1'> +2.0670354e-04 </wgt>
<wgt id='morphing_basis_vector_2'> +1.3567794e-04 </wgt>
<wgt id='morphing_basis_vector_3'> +2.0530054e-04 </wgt>
<wgt id='morphing_basis_vector_4'> +1.2688949e-04 </wgt>
<wgt id='morphing_basis_vector_5'> +2.0573548e-04 </wgt>
</rwgt>
</event>
<event>
 4      1 +7.8865000e-07 1.18379500e+03 7.81860800e-03 8.52662900e-02
        2 -1    0    0  501    0 +0.0000000000e+00 +0.0000000000e+00 +1.8426133717e+03 1.8426133717e+03 0.0000000000e+00 0.0000e+00 -1.0000e+00
       -2 -1    0    0    0  501 -0.0000000000e+00 -0.0000000000e+00 -1.9013359918e+02 1.9013359918e+02 0.0000000000e+00 0.0000e+00 1.0000e+00
      -13  1    1    2    0    0 -5.3574867792e+02 +2.0607231333e+02 +5.7829074747e+02 8.1480834116e+02 0.0000000000e+00 0.0000e+00 1.0000e+00
       13  1    1    2    0    0 +5.3574867792e+02 -2.0607231333e+02 +1.0741890251e+03 1.2179386297e+03 0.0000000000e+00 0.0000e+00 -1.0000e+00
<mgrwt>
<rscale>  0 0.11837951E+04</rscale>
<asrwt>0</asrwt>
<pdfrwt beam="1">  1        2 0.28347897E+00 0.11837951E+04</pdfrwt>
<pdfrwt beam="2">  1       -2 0.29251324E-01 0.11837951E+04</pdfrwt>
<totfact> 0.10441478E+02</totfact>
</mgrwt>
<rwgt>
<wgt id='morphing_basis_vector_1'> +2.3688009e-04 </wgt>
<wgt id='morphing_basis_vector_2'> +1.5923116e-04 </wgt>
<wgt id='morphing_basis_vector_3'> +2.3711907e-04 </wgt>
<wgt id='morphing_basis_vector_4'> +1.4464542e-04 </wgt>
<wgt id='morphing_basis_vector_5'> +2.3819437e-04 </wgt>
</rwgt>
</event>
<event>
 4      1 +7.8865000e-07 1.14400000e+03 7.81860800e-03 8.55814700e-02
        2 -1    0    0  501    0 +0.0000000000e+00 +0.0000000000e+00 +1.8745453499e+03 1.8745453499e+03 0.0000000000e+00 0.0000e+00 -1.0000e+00
       -2 -1    0    0    0  501 -0.0000000000e+00 -0.0000000000e+00 -1.7454060626e+02 1.7454060626e+02 0.0000000000e+00 0.0000e+00 1.0000e+00
      -13  1    1    2    0    0 -3.1194251692e+02 +4.6981595638e+02 +1.0213284647e+03 1.1666820473e+03 0.0000000000e+00 0.0000e+00 1.0000e+00
       13  1    1    2    0    0 +3.1194251692e+02 -4.6981595638e+02 +6.7867627894e+02 8.8240390884e+02 0.0000000000e+00 0.0000e+00 -1.0000e+00
<mgrwt>
<rscale>  0 0.11440005E+04</rscale>
<asrwt>0</asrwt>
<pdfrwt beam="1">  1        2 0.28839158E+00 0.11440005E+04</pdfrwt>
<pdfrwt beam="2">  1       -2 0.26852402E-01 0.11440005E+04</pdfrwt>
<totfact> 0.11682163E+02</totfact>
</mgrwt>
<rwgt>
<wgt id='morphing_basis_vector_1'> +2.1858088e-04 </wgt>
<wgt id='morphing_basis_vector_2'> +1.7061476e-04 </wgt>
<wgt id='morphing_basis_vector_3'> +2.1816438e-04 </wgt>
<wgt id='morphing_basis_vector_4'> +1.0781203e-04 </wgt>
<wgt id='morphing_basis_vector_5'> +2.0485227e-04 </wgt>
</rwgt>
</event>
<event>
 4      1 +7.8865000e-07 1.20414400e+03 7.81860800e-03 8.51101200e-02
        2 -1    0    0  501    0 +0.0000000000e+00 +0.0000000000e+00 +4.1438895127e+02 4.1438895127e+02 0.0000000000e+00 0.0000e+00 -1.0000e+00
       -2 -1    0    0    0  501 -0.0000000000e+00 -0.0000000000e+00 -8.7475984237e+02 8.7475984237e+02 0.0000000000e+00 0.0000e+00 1.0000e+00
      -13  1    1    2    0    0 +4.1473961688e+02 -4.3599955387e+02 -2.5122615754e+02 6.5208829388e+02 0.0000000000e+00 0.0000e+00 -1.0000e+00
       13  1    1    2    0    0 -4.1473961688e+02 +4.3599955387e+02 -2.0914473356e+02 6.3706049976e+02 0.0000000000e+00 0.0000e+00 1.0000e+00
<mgrwt>
<rscale>  0 0.12041442E+04</rscale>
<asrwt>0</asrwt>
<pdfrwt beam="1">  1        2 0.63752147E-01 0.12041442E+04</pdfrwt>
<pdfrwt beam="2">  1       -2 0.13457844E+00 0.12041442E+04</pdfrwt>
<totfact> 0.35709878E+01</totfact>
</mgrwt>
<rwgt>
<wgt id='morphing_basis_vector_1'> +2.5709579e-04 </wgt>
<wgt id='morphing_basis_vector_2'> +1.8348984e-04 </wgt>
<wgt id='morphing_basis_vector_3'> +2.5882044e-04 </wgt>
<wgt id='morphing_basis_vector_4'> +1.4778963e-04 </wgt>
<wgt id='morphing_basis_vector_5'> +2.5549915e-04 </wgt>
</rwgt>
</event>
<event>
 4      1 +7.8865000e-07 1.21976300e+03 7.81860800e-03 8.49924400e-02
        2 -1    0    0  501    0 +0.0000000000e+00 +0.0000000000e+00 +6.0147047816e+02 6.0147047816e+02 0.0000000000e+00 0.0000e+00 -1.0000e+00
       -2 -1    0    0    0  501 -0.0000000000e+00 -0.0000000000e+00 -6.1841006914e+02 6.1841006914e+02 0.0000000000e+00 0.0000e+00 1.0000e+00
      -13  1    1    2    0    0 -3.8068328173e+02 +4.6177004254e+02 +1.0903224338e+02 6.0830860858e+02 0.0000000000e+00 0.0000e+00 1.0000e+00
       13  1    1    2    0    0 +3.8068328173e+02 -4.6177004254e+02 -1.2597183436e+02 6.1157193872e+02 0.0000000000e+00 0.0000e+00 -1.0000e+00
<mgrwt>
<rscale>  0 0.12197629E+04</rscale>
<asrwt>0</asrwt>
<pdfrwt beam="1">  1        2 0.92533920E-01 0.12197629E+04</pdfrwt>
<pdfrwt beam="2">  1       -2 0.95140011E-01 0.12197629E+04</pdfrwt>
<totfact> 0.56098968E+01</totfact>
</mgrwt>
<rwgt>
<wgt id='morphing_basis_vector_1'> +2.8003798e-04 </wgt>
<wgt id='morphing_basis_vector_2'> +2.2316258e-04 </wgt>
<wgt id='morphing_basis_vector_3'> +2.8406184e-04 </wgt>
<wgt id='morphing_basis_vector_4'> +1.3860324e-04 </wgt>
<wgt id='morphing_basis_vector_5'> +2.6860640e-04 </wgt>
</rwgt>
</event>
<event>
 4      1 +7.8865000e-07 1.12924400e+03 7.81860800e-03 8.57018000e-02
        2 -1    0    0  501    0 +0.0000000000e+00 +0.0000000000e+00 +1.8387337824e+03 1.8387337824e+03 0.0000000000e+00 0.0000e+00 1.0000e+00
       -2 -1    0    0    0  501 -0.0000000000e+00 -0.0000000000e+00 -1.7337903923e+02 1.7337903923e+02 0.0000000000e+00 0.0000e+00 -1.0000e+00
      -13  1    1    2    0    0 +1.4423526776e+02 +3.3269759682e+02 +1.6038310060e+03 1.6443130478e+03 0.0000000000e+00 0.0000e+00 -1.0000e+00
       13  1    1    2    0    0 -1.4423526776e+02 -3.3269759682e+02 +6.1523737192e+01 3.6779977383e+02 0.0000000000e+00 0.0000e+00 1.0000e+00
<mgrwt>
<rscale>  0 0.11292438E+04</rscale>
<asrwt>0</asrwt>
<pdfrwt beam="1">  1        2 0.28288211E+00 0.11292438E+04</pdfrwt>
<pdfrwt beam="2">  1       -2 0.26673700E-01 0.11292438E+04</pdfrwt>
<totfact> 0.12385909E+02</totfact>
</mgrwt>
<rwgt>
<wgt id='morphing_basis_vector_1'> +2.5744009e-04 </wgt>
<wgt id='morphing_basis_vector_2'> +3.1069162e-04 </wgt>
<wgt id='morphing_basis_vector_3'> +2.5982425e-04 </wgt>
<wgt id='morphing_basis_vector_4'> +2.0049970e-05 </wgt>
<wgt id='morphing_basis_vector_5'> +1.8847271e-04 </wgt>
</rwgt>
</event>
<event>
 4      1 +7.8865000e-07 1.26791700e+03 7.81860800e-03 8.46409700e-02
        2 -1    0    0  501    0 +0.0000000000e+00 +0.0000000000e+00 +7.6223018776e+02 7.6223018776e+02 0.0000000000e+00 0.0000e+00 -1.0000e+00
       -2 -1    0    0    0  501 -0.0000000000e+00 -0.0000000000e+00 -5.2727261834e+02 5.2727261834e+02 0.0000000000e+00 0.0000e+00 1.0000e+00
      -13  1    1    2    0    0 -3.3294509265e+02 +2.5960424611e+02 -3.6349586772e+02 5.5711403246e+02 0.0000000000e+00 0.0000e+00 1.0000e+00
       13  1    1    2    0    0 +3.3294509265e+02 -2.5960424611e+02 +5.9845343714e+02 7.3238877363e+02 0.0000000000e+00 0.0000e+00 -1.0000e+00
<mgrwt>
<rscale>  0 0.12679166E+04</rscale>
<asrwt>0</asrwt>
<pdfrwt beam="1">  1        2 0.11726618E+00 0.12679166E+04</pdfrwt>
<pdfrwt beam="2">  1       -2 0.81118864E-01 0.12679166E+04</pdfrwt>
<totfact> 0.60655773E+01</totfact>
</mgrwt>
<rwgt>
<wgt id='morphing_basis_vector_1'> +3.0325921e-04 </wgt>
<wgt id='morphing_basis_vector_2'> +1.9586913e-04 </wgt>
<wgt id='morphing_basis_vector_3'> +3.0692920e-04 </wgt>
<wgt id='morphing_basis_vector_4'> +2.0021604e-04 </wgt>
<wgt id='morphing_basis_vector_5'> +3.1876830e-04 </wgt>
</rwgt>
</event>
<event>
 4      1 +7.8865000e-07 1.22113500e+03 7.81860800e-03 8.49821900e-02
        2 -1    0    0  501    0 +0.0000000000e+00 +0.0000000000e+00 +1.4870546770e+03 1.4870546770e+03 0.0000000000e+00 0.0000e+00 1.0000e+00
       -2 -1    0    0    0  501 -0.0000000000e+00 -0.0000000000e+00 -2.5069213732e+02 2.5069213732e+02 0.0000000000e+00 0.0000e+00 -1.0000e+00
      -13  1    1    2    0    0 -7.6981632780e+01 +3.1800855337e+02 -1.1540119582e+02 3.4694819180e+02 0.0000000000e+00 0.0000e+00 -1.0000e+00
       13  1    1    2    0    0 +7.6981632780e+01 -3.1800855337e+02 +1.3517637355e+03 1.3907986225e+03 0.0000000000e+00 0.0000e+00 1.0000e+00
<mgrwt>
<rscale>  0 0.12211354E+04</rscale>
<asrwt>0</asrwt>
<pdfrwt beam="1">  1        2 0.22877764E+00 0.12211354E+04</pdfrwt>
<pdfrwt beam="2">  1       -2 0.38568022E-01 0.12211354E+04</pdfrwt>
<totfact> 0.99531154E+01</totfact>
</mgrwt>
<rwgt>
<wgt id='morphing_basis_vector_1'> +2.6276453e-04 </wgt>
<wgt id='morphing_basis_vector_2'> +1.6869118e-04 </wgt>
<wgt id='morphing_basis_vector_3'> +2.6414640e-04 </wgt>
<wgt id='morphing_basis_vector_4'> +1.7120487e-04 </wgt>
<wgt id='morphing_basis_vector_5'> +2.7207046e-04 </wgt>
</rwgt>
</event>
<event>
 4      1 +7.8865000e-07 1.21806600e+03 7.81860800e-03 8.50051300e-02
        2 -1    0    0  501    0 +0.0000000000e+00 +0.0000000000e+00 +7.6935121898e+02 7.6935121898e+02 0.0000000000e+00 0.0000e+00 -1.0000e+00
       -2 -1    0    0    0  501 -0.0000000000e+00 -0.0000000000e+00 -4.8212197212e+02 4.8212197212e+02 0.0000000000e+00 0.0000e+00 1.0000e+00
      -13  1    1    2    0    0 -2.2815809823e+02 -1.6097285194e+02 -4.1248110527e+02 4.9810544973e+02 0.0000000000e+00 0.0000e+00 1.0000e+00
       13  1    1    2    0    0 +2.2815809823e+02 +1.6097285194e+02 +6.9971035213e+02 7.5336774137e+02 0.0000000000e+00 0.0000e+00 -1.0000e+00
<mgrwt>
<rscale>  0 0.12180659E+04</rscale>
<asrwt>0</asrwt>
<pdfrwt beam="1">  1        2 0.11836173E+00 0.12180659E+04</pdfrwt>
<pdfrwt beam="2">  1       -2 0.74172611E-01 0.12180659E+04</pdfrwt>
<totfact> 0.73509115E+01</totfact>
</mgrwt>
<rwgt>
<wgt id='morphing_basis_vector_1'> +2.6023208e-04 </wgt>
<wgt id='morphing_basis_vector_2'> +1.6692943e-04 </wgt>
<wgt id='morphing_basis_vector_3'> +2.6147395e-04 </wgt>
<wgt id='morphing_basis_vector_4'> +1.6946525e-04 </wgt>
<wgt id='morphing_basis_vector_5'> +2.6919753e-04 </wgt>
</rwgt>
</event>
<event>
 4      1 +7.8865000e-07 1.07004800e+03 7.81860800e-03 8.62043600e-02
        2 -1    0    0  501    0 +0.0000000000e+00 +0.0000000000e+00 +7.1097249677e+02 7.1097249677e+02 0.0000000000e+00 0.0000e+00 1.0000e+00
       -2 -1    0    0    0  501 -0.0000000000e+00 -0.0000000000e+00 -4.0261831259e+02 4.0261831259e+02 0.0000000000e+00 0.0000e+00 -1.0000e+00
      -13  1    1    2    0    0 +8.3130055639e+00 +5.3414654265e+02 +1.2350027185e+02 5.4830096867e+02 0.0000000000e+00 0.0000e+00 -1.0000e+00
       13  1    1    2    0    0 -8.3130055639e+00 -5.3414654265e+02 +1.8485391232e+02 5.6528984069e+02 0.0000000000e+00 0.0000e+00 1.0000e+00
<mgrwt>
<rscale>  0 0.10700478E+04</rscale>
<asrwt>0</asrwt>
<pdfrwt beam="1">  1        2 0.10938038E+00 0.10700478E+04</pdfrwt>
<pdfrwt beam="2">  1       -2 0.61941279E-01 0.10700478E+04</pdfrwt>
<totfact> 0.12019430E+02</totfact>
</mgrwt>
<rwgt>
<wgt id='morphing_basis_vector_1'> +1.6452089e-04 </wgt>
<wgt id='morphing_basis_vector_2'> +1.1502776e-04 </wgt>
<wgt id='morphing_basis_vector_3'> +1.6108801e-04 </wgt>
<wgt id='morphing_basis_vector_4'> +9.0262641e-05 </wgt>
<wgt id='morphing_basis_vector_5'> +1.5455580e-04 </wgt>
</rwgt>
</event>
<event>
 4      1 +7.8865000e-07 1.23582000e+03 7.81860800e-03 8.48733700e-02
        2 -1    0    0  501    0 +0.0000000000e+00 +0.0000000000e+00 +1.1398591352e+03 1.1398591352e+03 0.0000000000e+00 0.0000e+00 -1.0000e+00
       -2 -1    0    0    0  501 -0.0000000000e+00 -0.0000000000e+00 -3.3496500364e+02 3.3496500364e+02 0.0000000000e+00 0.0000e+00 1.0000e+00
      -13  1    1    2    0    0 -1.8571079934e+02 +4.7823173957e+02 -8.5717792443e+00 5.1309606617e+02 0.0000000000e+00 0.0000e+00 1.0000e+00
       13  1    1    2    0    0 +1.8571079934e+02 -4.7823173957e+02 +8.1346591082e+02 9.6172807269e+02 0.0000000000e+00 0.0000e+00 -1.0000e+00
<mgrwt>
<rscale>  0 0.12358202E+04</rscale>
<asrwt>0</asrwt>
<pdfrwt beam="1">  1        2 0.17536294E+00 0.12358202E+04</pdfrwt>
<pdfrwt beam="2">  1       -2 0.51533078E-01 0.12358202E+04</pdfrwt>
<totfact> 0.90276573E+01</totfact>
</mgrwt>
<rwgt>
<wgt id='morphing_basis_vector_1'> +2.7575482e-04 </wgt>
<wgt id='morphing_basis_vector_2'> +1.7915413e-04 </wgt>
<wgt id='morphing_basis_vector_3'> +2.7793038e-04 </wgt>
<wgt id='morphing_basis_vector_4'> +1.7864249e-04 </wgt>
<wgt id='morphing_basis_vector_5'> +2.8605485e-04 </wgt>
</rwgt>
</event>
<event>
 4      1 +7.8865000e-07 1.07543200e+03 7.81860800e-03 8.61572700e-02
        2 -1    0    0  501    0 +0.0000000000e+00 +0.0000000000e+00 +2.1202421869e+03 2.1202421869e+03 0.0000000000e+00 0.0000e+00 1.0000e+00
       -2 -1    0    0    0  501 -0.0000000000e+00 -0.0000000000e+00 -1.3637057647e+02 1.3637057647e+02 0.0000000000e+00 0.0000e+00 -1.0000e+00
      -13  1    1    2    0    0 +4.2092337503e+02 -2.3514686841e+02 +4.9242677710e+02 6.8916954966e+02 0.0000000000e+00 0.0000e+00 -1.0000e+00
       13  1    1    2    0    0 -4.2092337503e+02 +2.3514686841e+02 +1.4914448334e+03 1.5674432138e+03 0.0000000000e+00 0.0000e+00 1.0000e+00
<mgrwt>
<rscale>  0 0.10754323E+04</rscale>
<asrwt>0</asrwt>
<pdfrwt beam="1">  1        2 0.32619108E+00 0.10754323E+04</pdfrwt>
<pdfrwt beam="2">  1       -2 0.20980090E-01 0.10754323E+04</pdfrwt>
<totfact> 0.13056647E+02</totfact>
</mgrwt>
<rwgt>
<wgt id='morphing_basis_vector_1'> +1.6380388e-04 </wgt>
<wgt id='morphing_basis_vector_2'> +1.0571534e-04 </wgt>
<wgt id='morphing_basis_vector_3'> +1.6045178e-04 </wgt>
<wgt id='morphing_basis_vector_4'> +9.8415605e-05 </wgt>
<wgt id='morphing_basis_vector_5'> +1.5831438e-04 </wgt>
</rwgt>
</event>
<event>
 4      1 +7.8865000e-07 1.17207400e+03 7.81860800e-03 8.53577500e-02
        2 -1    0    0  501    0 +0.0000000000e+00 +0.0000000000e+00 +1.8867906941e+03 1.8867906941e+03 0.0000000000e+00 0.0000e+00 -1.0000e+00
       -2 -1    0    0    0  501 -0.0000000000e+00 -0.0000000000e+00 -1.8202309282e+02 1.8202309282e+02 0.0000000000e+00 0.0000e+00 1.0000e+00
      -13  1    1    2    0    0 +2.4057504407e+02 +1.9556335623e+02 -2.5413516005e+01 3.1107430772e+02 0.0000000000e+00 0.0000e+00 1.0000e+00
       13  1    1    2    0    0 -2.4057504407e+02 -1.9556335623e+02 +1.7301811173e+03 1.7577394792e+03 0.0000000000e+00 0.0000e+00 -1.0000e+00
<mgrwt>
<rscale>  0 0.11720742E+04</rscale>
<asrwt>0</asrwt>
<pdfrwt beam="1">  1        2 0.29027548E+00 0.11720742E+04</pdfrwt>
<pdfrwt beam="2">  1       -2 0.28003554E-01 0.11720742E+04</pdfrwt>
<totfact> 0.10664376E+02</totfact>
</mgrwt>
<rwgt>
<wgt id='morphing_basis_vector_1'> +2.2501271e-04 </wgt>
<wgt id='morphing_basis_vector_2'> +1.4377695e-04 </wgt>
<wgt id='morphing_basis_vector_3'> +2.2443413e-04 </wgt>
<wgt id='morphing_basis_vector_4'> +1.4400393e-04 </wgt>
<wgt id='morphing_basis_vector_5'> +2.2870807e-04 </wgt>
</rwgt>
</event>
<event>
 4      1 +7.8865000e-07 1.13893400e+03 7.81860800e-03 8.56225700e-02
        2 -1    0    0  501    0 +0.0000000000e+00 +0.0000000000e+00 +6.9322583725e+02 6.9322583725e+02 0.0000000000e+00 0.0000e+00 1.0000e+00
       -2 -1    0    0    0  501 -0.0000000000e+00 -0.0000000000e+00 -4.6780197997e+02 4.6780197997e+02 0.0000000000e+00 0.0000e+00 -1.0000e+00
      -13  1    1    2    0    0 +4.8555543172e+02 +2.8856238172e+02 +3.8778477960e+01 5.6615907285e+02 0.0000000000e+00 0.0000e+00 -1.0000e+00
       13  1    1    2    0    0 -4.8555543172e+02 -2.8856238172e+02 +1.8664537932e+02 5.9486874438e+02 0.0000000000e+00 0.0000e+00 1.0000e+00
<mgrwt>
<rscale>  0 0.11389336E+04</rscale>
<asrwt>0</asrwt>
<pdfrwt beam="1">  1        2 0.10665013E+00 0.11389336E+04</pdfrwt>
<pdfrwt beam="2">  1       -2 0.71969535E-01 0.11389336E+04</pdfrwt>
<totfact> 0.89881731E+01</totfact>
</mgrwt>
<rwgt>
<wgt id='morphing_basis_vector_1'> +2.0644547e-04 </wgt>
<wgt id='morphing_basis_vector_2'> +1.4209202e-04 </wgt>
<wgt id='morphing_basis_vector_3'> +2.0511545e-04 </wgt>
<wgt id='morphing_basis_vector_4'> +1.2003994e-04 </wgt>
<wgt id='morphing_basis_vector_5'> +2.0195727e-04 </wgt>
</rwgt>
</event>
<event>
 4      1 +7.8865000e-07 1.16128100e+03 7.81860800e-03 8.54429700e-02
        2 -1    0    0  501    0 +0.0000000000e+00 +0.0000000000e+00 +2.9375197133e+02 2.9375197133e+02 0.0000000000e+00 0.0000e+00 -1.0000e+00
       -2 -1    0    0    0  501 -0.0000000000e+00 -0.0000000000e+00 -1.1477145518e+03 1.1477145518e+03 0.0000000000e+00 0.0000e+00 1.0000e+00
      -13  1    1    2    0    0 -5.6849103855e+02 -2.4112177324e+01 -2.8340109556e+02 6.3567258787e+02 0.0000000000e+00 0.0000e+00 1.0000e+00
       13  1    1    2    0    0 +5.6849103855e+02 +2.4112177324e+01 -5.7056148487e+02 8.0579393522e+02 0.0000000000e+00 0.0000e+00 -1.0000e+00
<mgrwt>
<rscale>  0 0.11612810E+04</rscale>
<asrwt>0</asrwt>
<pdfrwt beam="1">  1        2 0.45192611E-01 0.11612810E+04</pdfrwt>
<pdfrwt beam="2">  1       -2 0.17657147E+00 0.11612810E+04</pdfrwt>
<totfact> 0.23987893E+01</totfact>
</mgrwt>
<rwgt>
<wgt id='morphing_basis_vector_1'> +2.3288627e-04 </wgt>
<wgt id='morphing_basis_vector_2'> +1.8558617e-04 </wgt>
<wgt id='morphing_basis_vector_3'> +2.3347759e-04 </wgt>
<wgt id='morphing_basis_vector_4'> +1.1215365e-04 </wgt>
<wgt id='morphing_basis_vector_5'> +2.1814442e-04 </wgt>
</rwgt>
</event>
<event>
 4      1 +7.8865000e-07 1.20484100e+03 7.81860800e-03 8.51048300e-02
        2 -1    0    0  501    0 +0.0000000000e+00 +0.0000000000e+00 +1.5798046499e+03 1.5798046499e+03 0.0000000000e+00 0.0000e+00 -1.0000e+00
       -2 -1    0    0    0  501 -0.0000000000e+00 -0.0000000000e+00 -2.2971851688e+02 2.2971851688e+02 0.0000000000e+00 0.0000e+00 1.0000e+00
      -13  1    1    2    0    0 -1.6117211343e+02 -5.2013433841e+02 +2.8805325552e+02 6.1602829330e+02 0.0000000000e+00 0.0000e+00 1.0000e+00
       13  1    1    2    0    0 +1.6117211343e+02 +5.2013433841e+02 +1.0620328775e+03 1.1934948735e+03 0.0000000000e+00 0.0000e+00 -1.0000e+00
<mgrwt>
<rscale>  0 0.12048409E+04</rscale>
<asrwt>0</asrwt>
<pdfrwt beam="1">  1        2 0.24304686E+00 0.12048409E+04</pdfrwt>
<pdfrwt beam="2">  1       -2 0.35341311E-01 0.12048409E+04</pdfrwt>
<totfact> 0.10388438E+02</totfact>
</mgrwt>
<rwgt>
<wgt id='morphing_basis_vector_1'> +2.5123506e-04 </wgt>
<wgt id='morphing_basis_vector_2'> +1.6460725e-04 </wgt>
<wgt id='morphing_basis_vector_3'> +2.5212547e-04 </wgt>
<wgt id='morphing_basis_vector_4'> +1.5919294e-04 </wgt>
<wgt id='morphing_basis_vector_5'> +2.5687534e-04 </wgt>
</rwgt>
</event>
<event>
 4      1 +7.8865000e-07 1.19859800e+03 7.81860800e-03 8.51523600e-02
        2 -1    0    0  501    0 +0.0000000000e+00 +0.0000000000e+00 +1.6455363837e+03 1.6455363837e+03 0.0000000000e+00 0.0000e+00 -1.0000e+00
       -2 -1    0    0    0  501 -0.0000000000e+00 -0.0000000000e+00 -2.1826269821e+02 2.1826269821e+02 0.0000000000e+00 0.0000e+00 1.0000e+00
      -13  1    1    2    0    0 +5.4064338908e+00 +2.8620103676e+02 +1.5323599521e+03 1.5588673086e+03 0.0000000000e+00 0.0000e+00 -1.0000e+00
       13  1    1    2    0    0 -5.4064338908e+00 -2.8620103676e+02 -1.0508626659e+02 3.0493177335e+02 0.0000000000e+00 0.0000e+00 1.0000e+00
<mgrwt>
<rscale>  0 0.11985979E+04</rscale>
<asrwt>0</asrwt>
<pdfrwt beam="1">  1        2 0.25315944E+00 0.11985979E+04</pdfrwt>
<pdfrwt beam="2">  1       -2 0.33578878E-01 0.11985979E+04</pdfrwt>
<totfact> 0.10484655E+02</totfact>
</mgrwt>
<rwgt>
<wgt id='morphing_basis_vector_1'> +3.3154154e-04 </wgt>
<wgt id='morphing_basis_vector_2'> +4.1724856e-04 </wgt>
<wgt id='morphing_basis_vector_3'> +3.4327782e-04 </wgt>
<wgt id='morphing_basis_vector_4'> +9.6523696e-06 </wgt>
<wgt id='morphing_basis_vector_5'> +2.4138855e-04 </wgt>
</rwgt>
</event>
<event>
 4      1 +7.8865000e-07 1.27217200e+03 7.81860800e-03 8.46107000e-02
        2 -1    0    0  501    0 +0.0000000000e+00 +0.0000000000e+00 +2.5293682876e+03 2.5293682876e+03 0.0000000000e+00 0.0000e+00 -1.0000e+00
       -2 -1    0    0    0  501 -0.0000000000e+00 -0.0000000000e+00 -1.5996291330e+02 1.5996291330e+02 0.0000000000e+00 0.0000e+00 1.0000e+00
      -13  1    1    2    0    0 +1.6635176446e+02 +5.9829011836e+02 +8.9345679476e+02 1.0880666429e+03 0.0000000000e+00 0.0000e+00 1.0000e+00
       13  1    1    2    0    0 -1.6635176446e+02 -5.9829011836e+02 +1.4759485795e+03 1.6012645580e+03 0.0000000000e+00 0.0000e+00 -1.0000e+00
<mgrwt>
<rscale>  0 0.12721716E+04</rscale>
<asrwt>0</asrwt>
<pdfrwt beam="1">  1        2 0.38913355E+00 0.12721716E+04</pdfrwt>
<pdfrwt beam="2">  1       -2 0.24609681E-01 0.12721716E+04</pdfrwt>
<totfact> 0.56817653E+01</totfact>
</mgrwt>
<rwgt>
<wgt id='morphing_basis_vector_1'> +3.1177247e-04 </wgt>
<wgt id='morphing_basis_vector_2'> +2.1230420e-04 </wgt>
<wgt id='morphing_basis_vector_3'> +3.1652252e-04 </wgt>
<wgt id='morphing_basis_vector_4'> +1.9491179e-04 </wgt>
<wgt id='morphing_basis_vector_5'> +3.2272399e-04 </wgt>
</rwgt>
</event>
<event>
 4      1 +7.8865000e-07 1.13491000e+03 7.81860800e-03 8.56553700e-02
        2 -1    0    0  501    0 +0.0000000000e+00 +0.0000000000e+00 +7.2767914541e+02 7.2767914541e+02 0.0000000000e+00 0.0000e+00 -1.0000e+00
       -2 -1    0    0    0  501 -0.0000000000e+00 -0.0000000000e+00 -4.4250960059e+02 4.4250960059e+02 0.0000000000e+00 0.0000e+00 1.0000e+00
      -13  1    1    2    0    0 +4.5793850696e+02 +3.1674649857e+02 +2.5538846457e+02 6.1258410716e+02 0.0000000000e+00 0.0000e+00 1.0000e+00
       13  1    1    2    0    0 -4.5793850696e+02 -3.1674649857e+02 +2.9781080254e+01 5.5760463884e+02 0.0000000000e+00 0.0000e+00 -1.0000e+00
<mgrwt>
<rscale>  0 0.11349097E+04</rscale>
<asrwt>0</asrwt>
<pdfrwt beam="1">  1        2 0.11195064E+00 0.11349097E+04</pdfrwt>
<pdfrwt beam="2">  1       -2 0.68078400E-01 0.11349097E+04</pdfrwt>
<totfact> 0.95397733E+01</totfact>
</mgrwt>
<rwgt>
<wgt id='morphing_basis_vector_1'> +2.1327546e-04 </wgt>
<wgt id='morphing_basis_vector_2'> +1.6894124e-04 </wgt>
<wgt id='morphing_basis_vector_3'> +2.1252562e-04 </wgt>
<wgt id='morphing_basis_vector_4'> +1.0230182e-04 </wgt>
<wgt id='morphing_basis_vector_5'> +1.9788854e-04 </wgt>
</rwgt>
</event>
<event>
 4      1 +7.8865000e-07 1.11659800e+03 7.81860800e-03 8.58064600e-02
        2 -1    0    0  501    0 +0.0000000000e+00 +0.0000000000e+00 +8.4781862043e+02 8.4781862043e+02 0.0000000000e+00 0.0000e+00 -1.0000e+00
       -2 -1    0    0    0  501 -0.0000000000e+00 -0.0000000000e+00 -3.6764695426e+02 3.6764695426e+02 0.0000000000e+00 0.0000e+00 1.0000e+00
      -13  1    1    2    0    0 +4.3859074842e+02 -6.3307771804e+01 -1.2958355691e+02 4.6169428932e+02 0.0000000000e+00 0.0000e+00 1.0000e+00
       13  1    1    2    0    0 -4.3859074842e+02 +6.3307771804e+01 +6.0975522308e+02 7.5377128537e+02 0.0000000000e+00 0.0000e+00 -1.0000e+00
<mgrwt>
<rscale>  0 0.11165983E+04</rscale>
<asrwt>0</asrwt>
<pdfrwt beam="1">  1        2 0.13043363E+00 0.11165983E+04</pdfrwt>
<pdfrwt beam="2">  1       -2 0.56561070E-01 0.11165983E+04</pdfrwt>
<totfact> 0.11529347E+02</totfact>
</mgrwt>
<rwgt>
<wgt id='morphing_basis_vector_1'> +1.8787700e-04 </wgt>
<wgt id='morphing_basis_vector_2'> +1.2027284e-04 </wgt>
<wgt id='morphing_basis_vector_3'> +1.8555911e-04 </wgt>
<wgt id='morphing_basis_vector_4'> +1.1658920e-04 </wgt>
<wgt id='morphing_basis_vector_5'> +1.8600871e-04 </wgt>
</rwgt>
</event>
<event>
 4      1 +7.8865000e-07 1.10492500e+03 7.81860800e-03 8.59043300e-02
        2 -1    0    0  501    0 +0.0000000000e+00 +0.0000000000e+00 +8.6134037694e+02 8.6134037694e+02 0.0000000000e+00 0.0000e+00 1.0000e+00
       -2 -1    0    0    0  501 -0.0000000000e+00 -0.0000000000e+00 -3.5434866758e+02 3.5434866758e+02 0.0000000000e+00 0.0000e+00 -1.0000e+00
      -13  1    1    2    0    0 +2.5914415696e+02 -4.8348980662e+02 +1.8137537303e+02 5.7776735208e+02 0.0000000000e+00 0.0000e+00 -1.0000e+00
       13  1    1    2    0    0 -2.5914415696e+02 +4.8348980662e+02 +3.2561633634e+02 6.3792169243e+02 0.0000000000e+00 0.0000e+00 1.0000e+00
<mgrwt>
<rscale>  0 0.11049250E+04</rscale>
<asrwt>0</asrwt>
<pdfrwt beam="1">  1        2 0.13251390E+00 0.11049250E+04</pdfrwt>
<pdfrwt beam="2">  1       -2 0.54515180E-01 0.11049250E+04</pdfrwt>
<totfact> 0.12169677E+02</totfact>
</mgrwt>
<rwgt>
<wgt id='morphing_basis_vector_1'> +1.8437002e-04 </wgt>
<wgt id='morphing_basis_vector_2'> +1.2678355e-04 </wgt>
<wgt id='morphing_basis_vector_3'> +1.8190977e-04 </wgt>
<wgt id='morphing_basis_vector_4'> +1.0531987e-04 </wgt>
<wgt id='morphing_basis_vector_5'> +1.7744110e-04 </wgt>
</rwgt>
</event>
<event>
 4      1 +7.8865000e-07 1.08944500e+03 7.81860800e-03 8.60360700e-02
        2 -1    0    0  501    0 +0.0000000000e+00 +0.0000000000e+00 +9.4931968732e+02 9.4931968732e+02 0.0000000000e+00 0.0000e+00 -1.0000e+00
       -2 -1    0    0    0  501 -0.0000000000e+00 -0.0000000000e+00 -3.1256337161e+02 3.1256337161e+02 0.0000000000e+00 0.0000e+00 1.0000e+00
      -13  1    1    2    0    0 +4.3253473032e+02 +2.9884753432e+01 -6.3579151260e+01 4.3820280681e+02 0.0000000000e+00 0.0000e+00 1.0000e+00
       13  1    1    2    0    0 -4.3253473032e+02 -2.9884753432e+01 +7.0033546697e+02 8.2368025211e+02 0.0000000000e+00 0.0000e+00 -1.0000e+00
<mgrwt>
<rscale>  0 0.10894449E+04</rscale>
<asrwt>0</asrwt>
<pdfrwt beam="1">  1        2 0.14604918E+00 0.10894449E+04</pdfrwt>
<pdfrwt beam="2">  1       -2 0.48086673E-01 0.10894449E+04</pdfrwt>
<totfact> 0.13671962E+02</totfact>
</mgrwt>
<rwgt>
<wgt id='morphing_basis_vector_1'> +1.7133284e-04 </wgt>
<wgt id='morphing_basis_vector_2'> +1.0935791e-04 </wgt>
<wgt id='morphing_basis_vector_3'> +1.6830103e-04 </wgt>
<wgt id='morphing_basis_vector_4'> +1.0497056e-04 </wgt>
<wgt id='morphing_basis_vector_5'> +1.6741469e-04 </wgt>
</rwgt>
</event>
<event>
 4      1 +7.8865000e-07 1.12866000e+03 7.81860800e-03 8.57066100e-02
        2 -1    0    0  501    0 +0.0000000000e+00 +0.0000000000e+00 +2.7160230164e+02 2.7160230164e+02 0.0000000000e+00 0.0000e+00 1.0000e+00
       -2 -1    0    0    0  501 -0.0000000000e+00 -0.0000000000e+00 -1.1725534262e+03 1.1725534262e+03 0.0000000000e+00 0.0000e+00 -1.0000e+00
      -13  1    1    2    0    0 +2.1018302130e+02 -5.2372528989e+02 -4.4821269721e+02 7.2066615270e+02 0.0000000000e+00 0.0000e+00 -1.0000e+00
       13  1    1    2    0    0 -2.1018302130e+02 +5.2372528989e+02 -4.5273842733e+02 7.2348957511e+02 0.0000000000e+00 0.0000e+00 1.0000e+00
<mgrwt>
<rscale>  0 0.11286598E+04</rscale>
<asrwt>0</asrwt>
<pdfrwt beam="1">  1        2 0.41784969E-01 0.11286598E+04</pdfrwt>
<pdfrwt beam="2">  1       -2 0.18039284E+00 0.11286598E+04</pdfrwt>
<totfact> 0.24572200E+01</totfact>
</mgrwt>
<rwgt>
<wgt id='morphing_basis_vector_1'> +2.0225291e-04 </wgt>
<wgt id='morphing_basis_vector_2'> +1.4539372e-04 </wgt>
<wgt id='morphing_basis_vector_3'> +2.0075025e-04 </wgt>
<wgt id='morphing_basis_vector_4'> +1.1098614e-04 </wgt>
<wgt id='morphing_basis_vector_5'> +1.9401280e-04 </wgt>
</rwgt>
</event>
<event>
 4      1 +7.8865000e-07 1.28589700e+03 7.81860800e-03 8.45139000e-02
        2 -1    0    0  501    0 +0.0000000000e+00 +0.0000000000e+00 +9.3569352817e+02 9.3569352817e+02 0.0000000000e+00 0.0000e+00 -1.0000e+00
       -2 -1    0    0    0  501 -0.0000000000e+00 -0.0000000000e+00 -4.4179297903e+02 4.4179297903e+02 0.0000000000e+00 0.0000e+00 1.0000e+00
      -13  1    1    2    0    0 +3.4821174534e+02 -5.1817792727e+02 +8.2305064521e+01 6.2970938340e+02 0.0000000000e+00 0.0000e+00 1.0000e+00
       13  1    1    2    0    0 -3.4821174534e+02 +5.1817792727e+02 +4.1159548462e+02 7.4777712379e+02 0.0000000000e+00 0.0000e+00 -1.0000e+00
<mgrwt>
<rscale>  0 0.12858971E+04</rscale>
<asrwt>0</asrwt>
<pdfrwt beam="1">  1        2 0.14395285E+00 0.12858971E+04</pdfrwt>
<pdfrwt beam="2">  1       -2 0.67968151E-01 0.12858971E+04</pdfrwt>
<totfact> 0.68164932E+01</totfact>
</mgrwt>
<rwgt>
<wgt id='morphing_basis_vector_1'> +3.2433711e-04 </wgt>
<wgt id='morphing_basis_vector_2'> +2.2006183e-04 </wgt>
<wgt id='morphing_basis_vector_3'> +3.2983547e-04 </wgt>
<wgt id='morphing_basis_vector_4'> +2.0465630e-04 </wgt>
<wgt id='morphing_basis_vector_5'> +3.3766508e-04 </wgt>
</rwgt>
</event>
<event>
 4      1 +7.8865000e-07 1.15139400e+03 7.81860800e-03 8.55219000e-02
        2 -1    0    0  501    0 +0.0000000000e+00 +0.0000000000e+00 +6.2852966133e+02 6.2852966133e+02 0.0000000000e+00 0.0000e+00 1.0000e+00
       -2 -1    0    0    0  501 -0.0000000000e+00 -0.0000000000e+00 -5.2730504631e+02 5.2730504631e+02 0.0000000000e+00 0.0000e+00 -1.0000e+00
      -13  1    1    2    0    0 -2.2980266596e+02 -5.2399321014e+02 -1.3262610993e+01 5.7232337573e+02 0.0000000000e+00 0.0000e+00 1.0000e+00
       13  1    1    2    0    0 +2.2980266596e+02 +5.2399321014e+02 +1.1448722601e+02 5.8351133191e+02 0.0000000000e+00 0.0000e+00 -1.0000e+00
<mgrwt>
<rscale>  0 0.11513937E+04</rscale>
<asrwt>0</asrwt>
<pdfrwt beam="1">  1        2 0.96696871E-01 0.11513937E+04</pdfrwt>
<pdfrwt beam="2">  1       -2 0.81123853E-01 0.11513937E+04</pdfrwt>
<totfact> 0.77474028E+01</totfact>
</mgrwt>
<rwgt>
<wgt id='morphing_basis_vector_1'> +2.1538887e-04 </wgt>
<wgt id='morphing_basis_vector_2'> +1.4914771e-04 </wgt>
<wgt id='morphing_basis_vector_3'> +2.1455141e-04 </wgt>
<wgt id='morphing_basis_vector_4'> +1.2517645e-04 </wgt>
<wgt id='morphing_basis_vector_5'> +2.1149231e-04 </wgt>
</rwgt>
</event>
<event>
 4      1 +7.8865000e-07 1.09009100e+03 7.81860800e-03 8.60305300e-02
        2 -1    0    0  501    0 +0.0000000000e+00 +0.0000000000e+00 +1.4807625636e+03 1.4807625636e+03 0.0000000000e+00 0.0000e+00 1.0000e+00
       -2 -1    0    0    0  501 -0.0000000000e+00 -0.0000000000e+00 -2.0062269392e+02 2.0062269392e+02 0.0000000000e+00 0.0000e+00 -1.0000e+00
      -13  1    1    2    0    0 -3.8937678887e+02 +7.8389509403e+01 +6.4359603926e+01 4.0236967768e+02 0.0000000000e+00 0.0000e+00 -1.0000e+00
       13  1    1    2    0    0 +3.8937678887e+02 -7.8389509403e+01 +1.2157802657e+03 1.2790155798e+03 0.0000000000e+00 0.0000e+00 1.0000e+00
<mgrwt>
<rscale>  0 0.10900910E+04</rscale>
<asrwt>0</asrwt>
<pdfrwt beam="1">  1        2 0.22780962E+00 0.10900910E+04</pdfrwt>
<pdfrwt beam="2">  1       -2 0.30865031E-01 0.10900910E+04</pdfrwt>
<totfact> 0.15178079E+02</totfact>
</mgrwt>
<rwgt>
<wgt id='morphing_basis_vector_1'> +1.7154154e-04 </wgt>
<wgt id='morphing_basis_vector_2'> +1.0909142e-04 </wgt>
<wgt id='morphing_basis_vector_3'> +1.6852002e-04 </wgt>
<wgt id='morphing_basis_vector_4'> +1.0551638e-04 </wgt>
<wgt id='morphing_basis_vector_5'> +1.6785841e-04 </wgt>
</rwgt>
</event>
<event>
 4      1 +7.8865000e-07 1.11224300e+03 7.81860800e-03 8.58428300e-02
        2 -1    0    0  501    0 +0.0000000000e+00 +0.0000000000e+00 +1.6707553063e+03 1.6707553063e+03 0.0000000000e+00 0.0000e+00 -1.0000e+00
       -2 -1    0    0    0  501 -0.0000000000e+00 -0.0000000000e+00 -1.8510867309e+02 1.8510867309e+02 0.0000000000e+00 0.0000e+00 1.0000e+00
      -13  1    1    2    0    0 -4.8176188707e+02 -7.3019442099e+01 +2.9557940110e+02 5.6990660385e+02 0.0000000000e+00 0.0000e+00 1.0000e+00
       13  1    1    2    0    0 +4.8176188707e+02 +7.3019442099e+01 +1.1900672321e+03 1.2859573755e+03 0.0000000000e+00 0.0000e+00 -1.0000e+00
<mgrwt>
<rscale>  0 0.11122433E+04</rscale>
<asrwt>0</asrwt>
<pdfrwt beam="1">  1        2 0.25703927E+00 0.11122433E+04</pdfrwt>
<pdfrwt beam="2">  1       -2 0.28478259E-01 0.11122433E+04</pdfrwt>
<totfact> 0.13702517E+02</totfact>
</mgrwt>
<rwgt>
<wgt id='morphing_basis_vector_1'> +1.8559690e-04 </wgt>
<wgt id='morphing_basis_vector_2'> +1.1983229e-04 </wgt>
<wgt id='morphing_basis_vector_3'> +1.8318228e-04 </wgt>
<wgt id='morphing_basis_vector_4'> +1.1391816e-04 </wgt>
<wgt id='morphing_basis_vector_5'> +1.8288084e-04 </wgt>
</rwgt>
</event>
<event>
 4      1 +7.8865000e-07 1.19899500e+03 7.81860800e-03 8.51493200e-02
        2 -1    0    0  501    0 +0.0000000000e+00 +0.0000000000e+00 +6.4910954420e+02 6.4910954420e+02 0.0000000000e+00 0.0000e+00 -1.0000e+00
       -2 -1    0    0    0  501 -0.0000000000e+00 -0.0000000000e+00 -5.5367779726e+02 5.5367779726e+02 0.0000000000e+00 0.0000e+00 1.0000e+00
      -13  1    1    2    0    0 -4.9957005651e+02 -1.3423601435e+02 -2.5624070690e+02 5.7727709878e+02 0.0000000000e+00 0.0000e+00 1.0000e+00
       13  1    1    2    0    0 +4.9957005651e+02 +1.3423601435e+02 +3.5167245383e+02 6.2551024268e+02 0.0000000000e+00 0.0000e+00 -1.0000e+00
<mgrwt>
<rscale>  0 0.11989955E+04</rscale>
<asrwt>0</asrwt>
<pdfrwt beam="1">  1        2 0.99863007E-01 0.11989955E+04</pdfrwt>
<pdfrwt beam="2">  1       -2 0.85181199E-01 0.11989955E+04</pdfrwt>
<totfact> 0.66433387E+01</totfact>
</mgrwt>
<rwgt>
<wgt id='morphing_basis_vector_1'> +2.4615142e-04 </wgt>
<wgt id='morphing_basis_vector_2'> +1.6001117e-04 </wgt>
<wgt id='morphing_basis_vector_3'> +2.4672706e-04 </wgt>
<wgt id='morphing_basis_vector_4'> +1.5682252e-04 </wgt>
<wgt id='morphing_basis_vector_5'> +2.5170182e-04 </wgt>
</rwgt>
</event>
<event>
 4      1 +7.8865000e-07 1.12511600e+03 7.81860800e-03 8.57358100e-02
        2 -1    0    0  501    0 +0.0000000000e+00 +0.0000000000e+00 +1.2814391038e+03 1.2814391038e+03 0.0000000000e+00 0.0000e+00 -1.0000e+00
       -2 -1    0    0    0  501 -0.0000000000e+00 -0.0000000000e+00 -2.4696548832e+02 2.4696548832e+02 0.0000000000e+00 0.0000e+00 1.0000e+00
      -13  1    1    2    0    0 +3.8183725536e+02 +1.6107469606e+00 -4.3964243875e+01 3.8436329016e+02 0.0000000000e+00 0.0000e+00 1.0000e+00
       13  1    1    2    0    0 -3.8183725536e+02 -1.6107469606e+00 +1.0784378594e+03 1.1440413020e+03 0.0000000000e+00 0.0000e+00 -1.0000e+00
<mgrwt>
<rscale>  0 0.11251155E+04</rscale>
<asrwt>0</asrwt>
<pdfrwt beam="1">  1        2 0.19714447E+00 0.11251155E+04</pdfrwt>
<pdfrwt beam="2">  1       -2 0.37994691E-01 0.11251155E+04</pdfrwt>
<totfact> 0.13466645E+02</totfact>
</mgrwt>
<rwgt>
<wgt id='morphing_basis_vector_1'> +1.9303969e-04 </wgt>
<wgt id='morphing_basis_vector_2'> +1.2304580e-04 </wgt>
<wgt id='morphing_basis_vector_3'> +1.9094880e-04 </wgt>
<wgt id='morphing_basis_vector_4'> +1.2087098e-04 </wgt>
<wgt id='morphing_basis_vector_5'> +1.9217055e-04 </wgt>
</rwgt>
</event>
<event>
 4      1 +7.8865000e-07 1.26982000e+03 7.81860800e-03 8.46274100e-02
        2 -1    0    0  501    0 +0.0000000000e+00 +0.0000000000e+00 +1.0044811792e+03 1.0044811792e+03 0.0000000000e+00 0.0000e+00 -1.0000e+00
       -2 -1    0    0    0  501 -0.0000000000e+00 -0.0000000000e+00 -4.0131266954e+02 4.0131266954e+02 0.0000000000e+00 0.0000e+00 1.0000e+00
      -13  1    1    2    0    0 -2.2132880690e+02 -5.9406517653e+02 +2.6305611374e+02 6.8636607849e+02 0.0000000000e+00 0.0000e+00 1.0000e+00
       13  1    1    2    0    0 +2.2132880690e+02 +5.9406517653e+02 +3.4011239591e+02 7.1942777023e+02 0.0000000000e+00 0.0000e+00 -1.0000e+00
<mgrwt>
<rscale>  0 0.12698205E+04</rscale>
<asrwt>0</asrwt>
<pdfrwt beam="1">  1        2 0.15453557E+00 0.12698205E+04</pdfrwt>
<pdfrwt beam="2">  1       -2 0.61740411E-01 0.12698205E+04</pdfrwt>
<totfact> 0.75504386E+01</totfact>
</mgrwt>
<rwgt>
<wgt id='morphing_basis_vector_1'> +3.1375943e-04 </wgt>
<wgt id='morphing_basis_vector_2'> +2.2328973e-04 </wgt>
<wgt id='morphing_basis_vector_3'> +3.1913502e-04 </wgt>
<wgt id='morphing_basis_vector_4'> +1.8606222e-04 </wgt>
<wgt id='morphing_basis_vector_5'> +3.1971135e-04 </wgt>
</rwgt>
</event>
<event>
 4      1 +7.8865000e-07 1.24811600e+03 7.81860800e-03 8.47834700e-02
        2 -1    0    0  501    0 +0.0000000000e+00 +0.0000000000e+00 +3.2310513300e+03 3.2310513300e+03 0.0000000000e+00 0.0000e+00 -1.0000e+00
       -2 -1    0    0    0  501 -0.0000000000e+00 -0.0000000000e+00 -1.2053301552e+02 1.2053301552e+02 0.0000000000e+00 0.0000e+00 1.0000e+00
      -13  1    1    2    0    0 +3.5034059334e+02 +4.2667960180e+02 +7.7395551698e+02 9.5068457240e+02 0.0000000000e+00 0.0000e+00 1.0000e+00
       13  1    1    2    0    0 -3.5034059334e+02 -4.2667960180e+02 +2.3365627975e+03 2.4008997731e+03 0.0000000000e+00 0.0000e+00 -1.0000e+00
<mgrwt>
<rscale>  0 0.12481160E+04</rscale>
<asrwt>0</asrwt>
<pdfrwt beam="1">  1        2 0.49708476E+00 0.12481160E+04</pdfrwt>
<pdfrwt beam="2">  1       -2 0.18543543E-01 0.12481160E+04</pdfrwt>
<totfact> 0.33085775E+01</totfact>
</mgrwt>
<rwgt>
<wgt id='morphing_basis_vector_1'> +2.8689663e-04 </wgt>
<wgt id='morphing_basis_vector_2'> +1.8794559e-04 </wgt>
<wgt id='morphing_basis_vector_3'> +2.8976891e-04 </wgt>
<wgt id='morphing_basis_vector_4'> +1.8522413e-04 </wgt>
<wgt id='morphing_basis_vector_5'> +2.9817713e-04 </wgt>
</rwgt>
</event>
<event>
 4      1 +7.8865000e-07 1.10251500e+03 7.81860800e-03 8.59247000e-02
        2 -1    0    0  501    0 +0.0000000000e+00 +0.0000000000e+00 +1.9596656120e+03 1.9596656120e+03 0.0000000000e+00 0.0000e+00 1.0000e+00
       -2 -1    0    0    0  501 -0.0000000000e+00 -0.0000000000e+00 -1.5506965302e+02 1.5506965302e+02 0.0000000000e+00 0.0000e+00 -1.0000e+00
      -13  1    1    2    0    0 +3.8648129253e+02 +2.6511088221e+02 +3.4560851373e+02 5.8232019895e+02 0.0000000000e+00 0.0000e+00 -1.0000e+00
       13  1    1    2    0    0 -3.8648129253e+02 -2.6511088221e+02 +1.4589874452e+03 1.5324150660e+03 0.0000000000e+00 0.0000e+00 1.0000e+00
<mgrwt>
<rscale>  0 0.11025147E+04</rscale>
<asrwt>0</asrwt>
<pdfrwt beam="1">  1        2 0.30148700E+00 0.11025147E+04</pdfrwt>
<pdfrwt beam="2">  1       -2 0.23856871E-01 0.11025147E+04</pdfrwt>
<totfact> 0.12888628E+02</totfact>
</mgrwt>
<rwgt>
<wgt id='morphing_basis_vector_1'> +1.7940450e-04 </wgt>
<wgt id='morphing_basis_vector_2'> +1.1527978e-04 </wgt>
<wgt id='morphing_basis_vector_3'> +1.7671515e-04 </wgt>
<wgt id='morphing_basis_vector_4'> +1.1003318e-04 </wgt>
<wgt id='morphing_basis_vector_5'> +1.7615839e-04 </wgt>
</rwgt>
</event>
<event>
 4      1 +7.8865000e-07 1.17395700e+03 7.81860800e-03 8.53429800e-02
        2 -1    0    0  501    0 +0.0000000000e+00 +0.0000000000e+00 +7.2820320883e+02 7.2820320883e+02 0.0000000000e+00 0.0000e+00 -1.0000e+00
       -2 -1    0    0    0  501 -0.0000000000e+00 -0.0000000000e+00 -4.7314208282e+02 4.7314208282e+02 0.0000000000e+00 0.0000e+00 1.0000e+00
      -13  1    1    2    0    0 -1.1749955134e+02 +2.8559459256e+02 -3.8328769094e+02 4.9221933108e+02 0.0000000000e+00 0.0000e+00 1.0000e+00
       13  1    1    2    0    0 +1.1749955134e+02 -2.8559459256e+02 +6.3834881695e+02 7.0912596057e+02 0.0000000000e+00 0.0000e+00 -1.0000e+00
<mgrwt>
<rscale>  0 0.11739567E+04</rscale>
<asrwt>0</asrwt>
<pdfrwt beam="1">  1        2 0.11203126E+00 0.11739567E+04</pdfrwt>
<pdfrwt beam="2">  1       -2 0.72791090E-01 0.11739567E+04</pdfrwt>
<totfact> 0.82321428E+01</totfact>
</mgrwt>
<rwgt>
<wgt id='morphing_basis_vector_1'> +2.2637804e-04 </wgt>
<wgt id='morphing_basis_vector_2'> +1.4467277e-04 </wgt>
<wgt id='morphing_basis_vector_3'> +2.2586726e-04 </wgt>
<wgt id='morphing_basis_vector_4'> +1.4498733e-04 </wgt>
<wgt id='morphing_basis_vector_5'> +2.3027122e-04 </wgt>
</rwgt>
</event>
<event>
 4      1 +7.8865000e-07 1.13787400e+03 7.81860800e-03 8.56312000e-02
        2 -1    0    0  501    0 +0.0000000000e+00 +0.0000000000e+00 +1.3551605795e+03 1.3551605795e+03 0.0000000000e+00 0.0000e+00 -1.0000e+00
       -2 -1    0    0    0  501 -0.0000000000e+00 -0.0000000000e+00 -2.3885676115e+02 2.3885676115e+02 0.0000000000e+00 0.0000e+00 1.0000e+00
      -13  1    1    2    0    0 -4.9809138735e+02 +2.7446907698e+02 +5.3552173292e+02 7.8116056659e+02 0.0000000000e+00 0.0000e+00 1.0000e+00
       13  1    1    2    0    0 +4.9809138735e+02 -2.7446907698e+02 +5.8078208542e+02 8.1285677405e+02 0.0000000000e+00 0.0000e+00 -1.0000e+00
<mgrwt>
<rscale>  0 0.11378739E+04</rscale>
<asrwt>0</asrwt>
<pdfrwt beam="1">  1        2 0.20848624E+00 0.11378739E+04</pdfrwt>
<pdfrwt beam="2">  1       -2 0.36747195E-01 0.11378739E+04</pdfrwt>
<totfact> 0.12988277E+02</totfact>
</mgrwt>
<rwgt>
<wgt id='morphing_basis_vector_1'> +2.0774050e-04 </wgt>
<wgt id='morphing_basis_vector_2'> +1.4765183e-04 </wgt>
<wgt id='morphing_basis_vector_3'> +2.0653053e-04 </wgt>
<wgt id='morphing_basis_vector_4'> +1.1619794e-04 </wgt>
<wgt id='morphing_basis_vector_5'> +2.0093677e-04 </wgt>
</rwgt>
</event>
<event>
 4      1 +7.8865000e-07 1.10467100e+03 7.81860800e-03 8.59064800e-02
        2 -1    0    0  501    0 +0.0000000000e+00 +0.0000000000e+00 +2.6745912404e+02 2.6745912404e+02 0.0000000000e+00 0.0000e+00 -1.0000e+00
       -2 -1    0    0    0  501 -0.0000000000e+00 -0.0000000000e+00 -1.1406395813e+03 1.1406395813e+03 0.0000000000e+00 0.0000e+00 1.0000e+00
      -13  1    1    2    0    0 +3.8354081253e+02 -2.1193259353e+02 -8.6518413560e+02 9.6982605016e+02 0.0000000000e+00 0.0000e+00 1.0000e+00
       13  1    1    2    0    0 -3.8354081253e+02 +2.1193259353e+02 -7.9963216042e+00 4.3827265513e+02 0.0000000000e+00 0.0000e+00 -1.0000e+00
<mgrwt>
<rscale>  0 0.11046709E+04</rscale>
<asrwt>0</asrwt>
<pdfrwt beam="1">  1        2 0.41147556E-01 0.11046709E+04</pdfrwt>
<pdfrwt beam="2">  1       -2 0.17548302E+00 0.11046709E+04</pdfrwt>
<totfact> 0.27308113E+01</totfact>
</mgrwt>
<rwgt>
<wgt id='morphing_basis_vector_1'> +1.8046101e-04 </wgt>
<wgt id='morphing_basis_vector_2'> +1.1536689e-04 </wgt>
<wgt id='morphing_basis_vector_3'> +1.7781688e-04 </wgt>
<wgt id='morphing_basis_vector_4'> +1.1138256e-04 </wgt>
<wgt id='morphing_basis_vector_5'> +1.7766450e-04 </wgt>
</rwgt>
</event>
<event>
 4      1 +7.8865000e-07 1.23601700e+03 7.81860800e-03 8.48719200e-02
        2 -1    0    0  501    0 +0.0000000000e+00 +0.0000000000e+00 +6.0676594389e+02 6.0676594389e+02 0.0000000000e+00 0.0000e+00 -1.0000e+00
       -2 -1    0    0    0  501 -0.0000000000e+00 -0.0000000000e+00 -6.2945967629e+02 6.2945967629e+02 0.0000000000e+00 0.0000e+00 1.0000e+00
      -13  1    1    2    0    0 +6.0550906158e+02 -1.2149272290e+02 -3.4437317088e+01 6.1853668782e+02 0.0000000000e+00 0.0000e+00 1.0000e+00
       13  1    1    2    0    0 -6.0550906158e+02 +1.2149272290e+02 +1.1743584695e+01 6.1768893236e+02 0.0000000000e+00 0.0000e+00 -1.0000e+00
<mgrwt>
<rscale>  0 0.12360173E+04</rscale>
<asrwt>0</asrwt>
<pdfrwt beam="1">  1        2 0.93348606E-01 0.12360173E+04</pdfrwt>
<pdfrwt beam="2">  1       -2 0.96839950E-01 0.12360173E+04</pdfrwt>
<totfact> 0.53170779E+01</totfact>
</mgrwt>
<rwgt>
<wgt id='morphing_basis_vector_1'> +2.8371294e-04 </wgt>
<wgt id='morphing_basis_vector_2'> +2.0264275e-04 </wgt>
<wgt id='morphing_basis_vector_3'> +2.8713758e-04 </wgt>
<wgt id='morphing_basis_vector_4'> +1.6521338e-04 </wgt>
<wgt id='morphing_basis_vector_5'> +2.8531435e-04 </wgt>
</rwgt>
</event>
<event>
 4      1 +7.8865000e-07 1.10414700e+03 7.81860800e-03 8.59109000e-02
        2 -1    0    0  501    0 +0.0000000000e+00 +0.0000000000e+00 +1.0171584251e+03 1.0171584251e+03 0.0000000000e+00 0.0000e+00 -1.0000e+00
       -2 -1    0    0    0  501 -0.0000000000e+00 -0.0000000000e+00 -2.9964370869e+02 2.9964370869e+02 0.0000000000e+00 0.0000e+00 1.0000e+00
      -13  1    1    2    0    0 -5.0852355641e+00 -3.9577629426e+02 -1.0023035974e+02 4.0830241210e+02 0.0000000000e+00 0.0000e+00 1.0000e+00
       13  1    1    2    0    0 +5.0852355641e+00 +3.9577629426e+02 +8.1774507611e+02 9.0849972163e+02 0.0000000000e+00 0.0000e+00 -1.0000e+00
<mgrwt>
<rscale>  0 0.11041470E+04</rscale>
<asrwt>0</asrwt>
<pdfrwt beam="1">  1        2 0.15648591E+00 0.11041470E+04</pdfrwt>
<pdfrwt beam="2">  1       -2 0.46099032E-01 0.11041470E+04</pdfrwt>
<totfact> 0.13436332E+02</totfact>
</mgrwt>
<rwgt>
<wgt id='morphing_basis_vector_1'> +1.7994699e-04 </wgt>
<wgt id='morphing_basis_vector_2'> +1.1457175e-04 </wgt>
<wgt id='morphing_basis_vector_3'> +1.7728000e-04 </wgt>
<wgt id='morphing_basis_vector_4'> +1.1147582e-04 </wgt>
<wgt id='morphing_basis_vector_5'> +1.7732486e-04 </wgt>
</rwgt>
</event>
<event>
 4      1 +7.8865000e-07 1.25808200e+03 7.81860800e-03 8.47114000e-02
        2 -1    0    0  501    0 +0.0000000000e+00 +0.0000000000e+00 +7.3733109503e+02 7.3733109503e+02 0.0000000000e+00 0.0000e+00 1.0000e+00
       -2 -1    0    0    0  501 -0.0000000000e+00 -0.0000000000e+00 -5.3665555234e+02 5.3665555234e+02 0.0000000000e+00 0.0000e+00 -1.0000e+00
      -13  1    1    2    0    0 -3.5185499101e+02 +4.1201904240e+01 -4.2603458786e+02 5.5408032059e+02 0.0000000000e+00 0.0000e+00 1.0000e+00
       13  1    1    2    0    0 +3.5185499101e+02 -4.1201904240e+01 +6.2671013055e+02 7.1990632679e+02 0.0000000000e+00 0.0000e+00 -1.0000e+00
<mgrwt>
<rscale>  0 0.12580824E+04</rscale>
<asrwt>0</asrwt>
<pdfrwt beam="1">  1        2 0.11343555E+00 0.12580824E+04</pdfrwt>
<pdfrwt beam="2">  1       -2 0.82562392E-01 0.12580824E+04</pdfrwt>
<totfact> 0.60792169E+01</totfact>
</mgrwt>
<rwgt>
<wgt id='morphing_basis_vector_1'> +2.9426753e-04 </wgt>
<wgt id='morphing_basis_vector_2'> +1.8957293e-04 </wgt>
<wgt id='morphing_basis_vector_3'> +2.9740281e-04 </wgt>
<wgt id='morphing_basis_vector_4'> +1.9402800e-04 </wgt>
<wgt id='morphing_basis_vector_5'> +3.0850912e-04 </wgt>
</rwgt>
</event>
<event>
 4      1 +7.8865000e-07 1.11287100e+03 7.81860800e-03 8.58375700e-02
        2 -1    0    0  501    0 +0.0000000000e+00 +0.0000000000e+00 +3.6832555579e+02 3.6832555579e+02 0.0000000000e+00 0.0000e+00 1.0000e+00
       -2 -1    0    0    0  501 -0.0000000000e+00 -0.0000000000e+00 -8.4061686875e+02 8.4061686875e+02 0.0000000000e+00 0.0000e+00 -1.0000e+00
      -13  1    1    2    0    0 -4.4137981170e+02 -3.3687952436e+02 -1.9672644763e+02 5.8907151290e+02 0.0000000000e+00 0.0000e+00 1.0000e+00
       13  1    1    2    0    0 +4.4137981170e+02 +3.3687952436e+02 -2.7556486532e+02 6.1987091165e+02 0.0000000000e+00 0.0000e+00 -1.0000e+00
<mgrwt>
<rscale>  0 0.11128714E+04</rscale>
<asrwt>0</asrwt>
<pdfrwt beam="1">  1        2 0.56665471E-01 0.11128714E+04</pdfrwt>
<pdfrwt beam="2">  1       -2 0.12932567E+00 0.11128714E+04</pdfrwt>
<totfact> 0.45738421E+01</totfact>
</mgrwt>
<rwgt>
<wgt id='morphing_basis_vector_1'> +1.9349770e-04 </wgt>
<wgt id='morphing_basis_vector_2'> +1.4271696e-04 </wgt>
<wgt id='morphing_basis_vector_3'> +1.9151339e-04 </wgt>
<wgt id='morphing_basis_vector_4'> +1.0179815e-04 </wgt>
<wgt id='morphing_basis_vector_5'> +1.8251889e-04 </wgt>
</rwgt>
</event>
<event>
 4      1 +7.8865000e-07 1.08974700e+03 7.81860800e-03 8.60334800e-02
        2 -1    0    0  501    0 +0.0000000000e+00 +0.0000000000e+00 +1.7923801525e+03 1.7923801525e+03 0.0000000000e+00 0.0000e+00 -1.0000e+00
       -2 -1    0    0    0  501 -0.0000000000e+00 -0.0000000000e+00 -1.6563840533e+02 1.6563840533e+02 0.0000000000e+00 0.0000e+00 1.0000e+00
      -13  1    1    2    0    0 -4.9939972817e+02 +2.1575701865e+02 +8.6833574387e+02 1.0246746526e+03 0.0000000000e+00 0.0000e+00 1.0000e+00
       13  1    1    2    0    0 +4.9939972817e+02 -2.1575701865e+02 +7.5840600330e+02 9.3334390524e+02 0.0000000000e+00 0.0000e+00 -1.0000e+00
<mgrwt>
<rscale>  0 0.10897467E+04</rscale>
<asrwt>0</asrwt>
<pdfrwt beam="1">  1        2 0.27575078E+00 0.10897467E+04</pdfrwt>
<pdfrwt beam="2">  1       -2 0.25482833E-01 0.10897467E+04</pdfrwt>
<totfact> 0.14265274E+02</totfact>
</mgrwt>
<rwgt>
<wgt id='morphing_basis_vector_1'> +1.7861153e-04 </wgt>
<wgt id='morphing_basis_vector_2'> +1.3089267e-04 </wgt>
<wgt id='morphing_basis_vector_3'> +1.7581394e-04 </wgt>
<wgt id='morphing_basis_vector_4'> +9.3509961e-05 </wgt>
<wgt id='morphing_basis_vector_5'> +1.6687319e-04 </wgt>
</rwgt>
</event>
<event>
 4      1 +7.8865000e-07 1.12270200e+03 7.81860800e-03 8.57557700e-02
        2 -1    0    0  501    0 +0.0000000000e+00 +0.0000000000e+00 +2.6614662744e+03 2.6614662744e+03 0.0000000000e+00 0.0000e+00 -1.0000e+00
       -2 -1    0    0    0  501 -0.0000000000e+00 -0.0000000000e+00 -1.1839892960e+02 1.1839892960e+02 0.0000000000e+00 0.0000e+00 1.0000e+00
      -13  1    1    2    0    0 -1.5408483044e+02 +5.2888272189e+02 +1.5388517665e+03 1.6344796810e+03 0.0000000000e+00 0.0000e+00 1.0000e+00
       13  1    1    2    0    0 +1.5408483044e+02 -5.2888272189e+02 +1.0042155783e+03 1.1453855229e+03 0.0000000000e+00 0.0000e+00 -1.0000e+00
<mgrwt>
<rscale>  0 0.11227017E+04</rscale>
<asrwt>0</asrwt>
<pdfrwt beam="1">  1        2 0.40945631E+00 0.11227017E+04</pdfrwt>
<pdfrwt beam="2">  1       -2 0.18215222E-01 0.11227017E+04</pdfrwt>
<totfact> 0.79710484E+01</totfact>
</mgrwt>
<rwgt>
<wgt id='morphing_basis_vector_1'> +2.0475613e-04 </wgt>
<wgt id='morphing_basis_vector_2'> +1.6198736e-04 </wgt>
<wgt id='morphing_basis_vector_3'> +2.0344962e-04 </wgt>
<wgt id='morphing_basis_vector_4'> +9.7764766e-05 </wgt>
<wgt id='morphing_basis_vector_5'> +1.8898229e-04 </wgt>
</rwgt>
</event>
<event>
 4      1 +7.8865000e-07 1.17840000e+03 7.81860800e-03 8.53082500e-02
        2 -1    0    0  501    0 +0.0000000000e+00 +0.0000000000e+00 +9.4774284989e+02 9.4774284989e+02 0.0000000000e+00 0.0000e+00 1.0000e+00
       -2 -1    0    0    0  501 -0.0000000000e+00 -0.0000000000e+00 -3.6629822232e+02 3.6629822232e+02 0.0000000000e+00 0.0000e+00 -1.0000e+00
      -13  1    1    2    0    0 -3.8237720121e+02 +3.6870478055e+02 +6.4227200566e+00 5.3122197860e+02 0.0000000000e+00 0.0000e+00 -1.0000e+00
       13  1    1    2    0    0 +3.8237720121e+02 -3.6870478055e+02 +5.7502190752e+02 7.8281909362e+02 0.0000000000e+00 0.0000e+00 1.0000e+00
<mgrwt>
<rscale>  0 0.11783998E+04</rscale>
<asrwt>0</asrwt>
<pdfrwt beam="1">  1        2 0.14580659E+00 0.11783998E+04</pdfrwt>
<pdfrwt beam="2">  1       -2 0.56353573E-01 0.11783998E+04</pdfrwt>
<totfact> 0.99460243E+01</totfact>
</mgrwt>
<rwgt>
<wgt id='morphing_basis_vector_1'> +2.3098378e-04 </wgt>
<wgt id='morphing_basis_vector_2'> +1.5088666e-04 </wgt>
<wgt id='morphing_basis_vector_3'> +2.3078995e-04 </wgt>
<wgt id='morphing_basis_vector_4'> +1.4501805e-04 </wgt>
<wgt id='morphing_basis_vector_5'> +2.3383662e-04 </wgt>
</rwgt>
</event>
<event>
 4      1 +7.8865000e-07 1.09178600e+03 7.81860800e-03 8.60160000e-02
        2 -1    0    0  501    0 +0.0000000000e+00 +0.0000000000e+00 +1.7533493236e+03 1.7533493236e+03 0.0000000000e+00 0.0000e+00 1.0000e+00
       -2 -1    0    0    0  501 -0.0000000000e+00 -0.0000000000e+00 -1.6996005437e+02 1.6996005437e+02 0.0000000000e+00 0.0000e+00 -1.0000e+00
      -13  1    1    2    0    0 -1.1761184181e+02 -3.9717774011e+02 +1.4180396504e+03 1.4773013074e+03 0.0000000000e+00 0.0000e+00 -1.0000e+00
       13  1    1    2    0    0 +1.1761184181e+02 +3.9717774011e+02 +1.6534961876e+02 4.4600807055e+02 0.0000000000e+00 0.0000e+00 1.0000e+00
<mgrwt>
<rscale>  0 0.10917863E+04</rscale>
<asrwt>0</asrwt>
<pdfrwt beam="1">  1        2 0.26974604E+00 0.10917863E+04</pdfrwt>
<pdfrwt beam="2">  1       -2 0.26147702E-01 0.10917863E+04</pdfrwt>
<totfact> 0.14336860E+02</totfact>
</mgrwt>
<rwgt>
<wgt id='morphing_basis_vector_1'> +2.1715165e-04 </wgt>
<wgt id='morphing_basis_vector_2'> +2.4428577e-04 </wgt>
<wgt id='morphing_basis_vector_3'> +2.1568939e-04 </wgt>
<wgt id='morphing_basis_vector_4'> +3.3362994e-05 </wgt>
<wgt id='morphing_basis_vector_5'> +1.6431769e-04 </wgt>
</rwgt>
</event>
<event>
 4      1 +7.8865000e-07 1.21670900e+03 7.81860800e-03 8.50153100e-02
        2 -1    0    0  501    0 +0.0000000000e+00 +0.0000000000e+00 +3.1405035252e+02 3.1405035252e+02 0.0000000000e+00 0.0000e+00 -1.0000e+00
       -2 -1    0    0    0  501 -0.0000000000e+00 -0.0000000000e+00 -1.1784572326e+03 1.1784572326e+03 0.0000000000e+00 0.0000e+00 1.0000e+00
      -13  1    1    2    0    0 +2.0119882894e+01 -4.4151537609e+02 -9.4499857537e+02 1.0432463489e+03 0.0000000000e+00 0.0000e+00 1.0000e+00
       13  1    1    2    0    0 -2.0119882894e+01 +4.4151537609e+02 +8.0591695308e+01 4.4926123622e+02 0.0000000000e+00 0.0000e+00 -1.0000e+00
<mgrwt>
<rscale>  0 0.12167085E+04</rscale>
<asrwt>0</asrwt>
<pdfrwt beam="1">  1        2 0.48315439E-01 0.12167085E+04</pdfrwt>
<pdfrwt beam="2">  1       -2 0.18130111E+00 0.12167085E+04</pdfrwt>
<totfact> 0.20391392E+01</totfact>
</mgrwt>
<rwgt>
<wgt id='morphing_basis_vector_1'> +2.5945420e-04 </wgt>
<wgt id='morphing_basis_vector_2'> +1.6716362e-04 </wgt>
<wgt id='morphing_basis_vector_3'> +2.6068335e-04 </wgt>
<wgt id='morphing_basis_vector_4'> +1.6811991e-04 </wgt>
<wgt id='morphing_basis_vector_5'> +2.6789461e-04 </wgt>
</rwgt>
</event>
<event>
 4      1 +7.8865000e-07 1.13606000e+03 7.81860800e-03 8.56459800e-02
        2 -1    0    0  501    0 +0.0000000000e+00 +0.0000000000e+00 +1.4920692650e+03 1.4920692650e+03 0.0000000000e+00 0.0000e+00 -1.0000e+00
       -2 -1    0    0    0  501 -0.0000000000e+00 -0.0000000000e+00 -2.1624883782e+02 2.1624883782e+02 0.0000000000e+00 0.0000e+00 1.0000e+00
      -13  1    1    2    0    0 +5.2212777980e+02 +1.2733767694e+02 +3.6134833620e+02 6.4761479483e+02 0.0000000000e+00 0.0000e+00 1.0000e+00
       13  1    1    2    0    0 -5.2212777980e+02 -1.2733767694e+02 +9.1447209093e+02 1.0607033080e+03 0.0000000000e+00 0.0000e+00 -1.0000e+00
<mgrwt>
<rscale>  0 0.11360603E+04</rscale>
<asrwt>0</asrwt>
<pdfrwt beam="1">  1        2 0.22954911E+00 0.11360603E+04</pdfrwt>
<pdfrwt beam="2">  1       -2 0.33269053E-01 0.11360603E+04</pdfrwt>
<totfact> 0.13036949E+02</totfact>
</mgrwt>
<rwgt>
<wgt id='morphing_basis_vector_1'> +2.0202900e-04 </wgt>
<wgt id='morphing_basis_vector_2'> +1.3329000e-04 </wgt>
<wgt id='morphing_basis_vector_3'> +2.0040628e-04 </wgt>
<wgt id='morphing_basis_vector_4'> +1.2287556e-04 </wgt>
<wgt id='morphing_basis_vector_5'> +2.0006675e-04 </wgt>
</rwgt>
</event>
<event>
 4      1 +7.8865000e-07 1.20863200e+03 7.81860800e-03 8.50761100e-02
        2 -1    0    0  501    0 +0.0000000000e+00 +0.0000000000e+00 +1.6343471621e+03 1.6343471621e+03 0.0000000000e+00 0.0000e+00 -1.0000e+00
       -2 -1    0    0    0  501 -0.0000000000e+00 -0.0000000000e+00 -2.2345171338e+02 2.2345171338e+02 0.0000000000e+00 0.0000e+00 1.0000e+00
      -13  1    1    2    0    0 +2.3358302047e+02 +3.3749623372e+02 +2.3669323909e+01 4.1112646731e+02 0.0000000000e+00 0.0000e+00 1.0000e+00
       13  1    1    2    0    0 -2.3358302047e+02 -3.3749623372e+02 +1.3872261248e+03 1.4466724081e+03 0.0000000000e+00 0.0000e+00 -1.0000e+00
<mgrwt>
<rscale>  0 0.12086317E+04</rscale>
<asrwt>0</asrwt>
<pdfrwt beam="1">  1        2 0.25143802E+00 0.12086317E+04</pdfrwt>
<pdfrwt beam="2">  1       -2 0.34377188E-01 0.12086317E+04</pdfrwt>
<totfact> 0.10185257E+02</totfact>
</mgrwt>
<rwgt>
<wgt id='morphing_basis_vector_1'> +2.5288195e-04 </wgt>
<wgt id='morphing_basis_vector_2'> +1.6255261e-04 </wgt>
<wgt id='morphing_basis_vector_3'> +2.5374910e-04 </wgt>
<wgt id='morphing_basis_vector_4'> +1.6365422e-04 </wgt>
<wgt id='morphing_basis_vector_5'> +2.6047014e-04 </wgt>
</rwgt>
</event>
<event>
 4      1 +7.8865000e-07 1.27652700e+03 7.81860800e-03 8.45798500e-02
        2 -1    0    0  501    0 +0.0000000000e+00 +0.0000000000e+00 +2.7876644319e+03 2.7876644319e+03 0.0000000000e+00 0.0000e+00 -1.0000e+00
       -2 -1    0    0    0  501 -0.0000000000e+00 -0.0000000000e+00 -1.4613669164e+02 1.4613669164e+02 0.0000000000e+00 0.0000e+00 1.0000e+00
      -13  1    1    2    0    0 -1.3649827900e+02 -5.3582084433e+02 +5.8803668086e+02 8.0716968193e+02 0.0000000000e+00 0.0000e+00 1.0000e+00
       13  1    1    2    0    0 +1.3649827900e+02 +5.3582084433e+02 +2.0534910594e+03 2.1266314416e+03 0.0000000000e+00 0.0000e+00 -1.0000e+00
<mgrwt>
<rscale>  0 0.12765266E+04</rscale>
<asrwt>0</asrwt>
<pdfrwt beam="1">  1        2 0.42887141E+00 0.12765266E+04</pdfrwt>
<pdfrwt beam="2">  1       -2 0.22482570E-01 0.12765266E+04</pdfrwt>
<totfact> 0.46192925E+01</totfact>
</mgrwt>
<rwgt>
<wgt id='morphing_basis_vector_1'> +3.1228127e-04 </wgt>
<wgt id='morphing_basis_vector_2'> +2.0444308e-04 </wgt>
<wgt id='morphing_basis_vector_3'> +3.1662080e-04 </wgt>
<wgt id='morphing_basis_vector_4'> +2.0402555e-04 </wgt>
<wgt id='morphing_basis_vector_5'> +3.2783436e-04 </wgt>
</rwgt>
</event>
<event>
 4      1 +7.8865000e-07 1.16825500e+03 7.81860800e-03 8.53877900e-02
        2 -1    0    0  501    0 +0.0000000000e+00 +0.0000000000e+00 +6.7600792575e+02 6.7600792575e+02 0.0000000000e+00 0.0000e+00 -1.0000e+00
       -2 -1    0    0    0  501 -0.0000000000e+00 -0.0000000000e+00 -5.0473498918e+02 5.0473498918e+02 0.0000000000e+00 0.0000e+00 1.0000e+00
      -13  1    1    2    0    0 +9.5202361424e+01 +3.2064540642e+02 -3.9836445192e+02 5.2016459206e+02 0.0000000000e+00 0.0000e+00 1.0000e+00
       13  1    1    2    0    0 -9.5202361424e+01 -3.2064540642e+02 +5.6963738849e+02 6.6057832287e+02 0.0000000000e+00 0.0000e+00 -1.0000e+00
<mgrwt>
<rscale>  0 0.11682549E+04</rscale>
<asrwt>0</asrwt>
<pdfrwt beam="1">  1        2 0.10400122E+00 0.11682549E+04</pdfrwt>
<pdfrwt beam="2">  1       -2 0.77651537E-01 0.11682549E+04</pdfrwt>
<totfact> 0.78245796E+01</totfact>
</mgrwt>
<rwgt>
<wgt id='morphing_basis_vector_1'> +2.2228633e-04 </wgt>
<wgt id='morphing_basis_vector_2'> +1.4204553e-04 </wgt>
<wgt id='morphing_basis_vector_3'> +2.2157444e-04 </wgt>
<wgt id='morphing_basis_vector_4'> +1.4198272e-04 </wgt>
<wgt id='morphing_basis_vector_5'> +2.2555792e-04 </wgt>
</rwgt>
</event>
</LesHouchesEvents>
