<LesHouchesEvents version="3.0">
<header>
<!--
#*********************************************************************
#                                                                    *
#                        MadGraph5_aMC@NLO                           *
#                                                                    *
#                           Going Beyond                             *
#                                                                    *
#                   http://madgraph.hep.uiuc.edu                     *
#                   http://madgraph.phys.ucl.ac.be                   *
#                   http://amcatnlo.cern.ch                          *
#                                                                    *
#                     The MadGraph5_aMC@NLO team                     *
#                                                                    *
#....................................................................*
#                                                                    *
# This file contains all the information necessary to reproduce      *
# the events generated:                                              *
#                                                                    *
# 1. software version                                                *
# 2. proc_card          : code generation info including model       *
# 3. param_card         : model primary parameters in the LH format  *
# 4. run_card           : running parameters (collider and cuts)     *
# 5. pythia_card        : present only if pythia has been run        *
# 6. pgs_card           : present only if pgs has been run           *
# 7. delphes_cards      : present only if delphes has been run       *
#                                                                    *
#                                                                    *
#*********************************************************************
-->
<MGVersion>
2.6.4
</MGVersion>
<MG5ProcCard>
<![CDATA[
#************************************************************
#*                     MadGraph5_aMC@NLO                    *
#*                                                          *
#*                *                       *                 *
#*                  *        * *        *                   *
#*                    * * * * 5 * * * *                     *
#*                  *        * *        *                   *
#*                *                       *                 *
#*                                                          *
#*                                                          *
#*         VERSION 2.6.4                 2018-11-09         *
#*                                                          *
#*    The MadGraph5_aMC@NLO Development Team - Find us at   *
#*    https://server06.fynu.ucl.ac.be/projects/madgraph     *
#*                                                          *
#************************************************************
#*                                                          *
#*               Command File for MadGraph5_aMC@NLO         *
#*                                                          *
#*     run as ./bin/mg5_aMC  filename                       *
#*                                                          *
#************************************************************
set default_unset_couplings 99
set group_subprocesses Auto
set ignore_six_quark_processes False
set loop_optimized_output True
set loop_color_flows False
set gauge unitary
set complex_mass_scheme False
set max_npoint_for_channel 0
import model SM4fLL_UFO
define p = g u c d s u~ c~ d~ s~
define j = g u c d s u~ c~ d~ s~
define l+ = e+ mu+
define l- = e- mu-
define vl = ve vm vt
define vl~ = ve~ vm~ vt~
generate u u~ > mu+ mu- NP=2 QED=99 QCD=0
output /Users/dpappadopulo/Projects/~Physics/madminer/examples/example\
4_systematics_DY/data/mg_processes/DY_sys/
]]>
</MG5ProcCard>
<MGProcCard>
#*********************************************************************
#                        MadGraph/MadEvent                           *
#                   http://madgraph.hep.uiuc.edu                     *
#                                                                    *
#                          proc_card.dat                             *
#*********************************************************************
#                                                                    *
#            This Files is generated by MADGRAPH 5                   *
#                                                                    *
# WARNING: This Files is generated for MADEVENT (compatibility issue)*
#          This files is NOT a valid MG4 proc_card.dat               *
#          Running this in MG4 will NEVER reproduce the result of MG5*
#                                                                    *
#*********************************************************************
#*********************************************************************
# Process(es) requested : mg2 input                                  *
#*********************************************************************
# Begin PROCESS # This is TAG. Do not modify this line
u u~ > mu+ mu-           #Process
# Be carefull the coupling are here in MG5 convention
NP=2
QED=99
QCD=0
          
end_coup           # End the couplings input

done               # this tells MG there are no more procs
# End PROCESS  # This is TAG. Do not modify this line
#*********************************************************************
# Model information                                                  *
#*********************************************************************
# Begin MODEL  # This is TAG. Do not modify this line
SM4fLL_UFO
# End   MODEL  # This is TAG. Do not modify this line
#*********************************************************************
# Start multiparticle definitions                                    *
#*********************************************************************
# Begin MULTIPARTICLES # This is TAG. Do not modify this line

# End  MULTIPARTICLES # This is TAG. Do not modify this line
</MGProcCard>
<MGRunCard>
<![CDATA[
#*********************************************************************
#                       MadGraph5_aMC@NLO                            *
#                                                                    *
#                     run_card.dat MadEvent                          *
#                                                                    *
#  This file is used to set the parameters of the run.               *
#                                                                    *
#  Some notation/conventions:                                        *
#                                                                    *
#   Lines starting with a '# ' are info or comments                  *
#                                                                    *
#   mind the format:   value    = variable     ! comment             *
#*********************************************************************
#
#*******************                                                 
# Running parameters
#*******************                                                 
#                                                                    
#*********************************************************************
# Tag name for the run (one word)                                    *
#*********************************************************************
  tag_1     = run_tag ! name of the run 
#*********************************************************************
# Run to generate the grid pack                                      *
#*********************************************************************
  False     = gridpack  !True = setting up the grid pack
#*********************************************************************
# Number of events and rnd seed                                      *
# Warning: Do not generate more than 1M events in a single run       *
# If you want to run Pythia, avoid more than 50k events in a run.    *
#*********************************************************************
  1000 = nevents ! Number of unweighted events requested
 57 = iseed   ! rnd seed (0=assigned automatically=default))
#*********************************************************************
# Collider type and energy                                           *
# lpp: 0=No PDF, 1=proton, -1=antiproton, 2=photon from proton,      *
#                                         3=photon from electron     *
#*********************************************************************
     1        = lpp1    ! beam 1 type 
     1        = lpp2    ! beam 2 type
     6500.0     = ebeam1  ! beam 1 total energy in GeV
     6500.0     = ebeam2  ! beam 2 total energy in GeV
#*********************************************************************
# Beam polarization from -100 (left-handed) to 100 (right-handed)    *
#*********************************************************************
     0.0     = polbeam1 ! beam polarization for beam 1
     0.0     = polbeam2 ! beam polarization for beam 2
#*********************************************************************
# PDF CHOICE: this automatically fixes also alpha_s and its evol.    *
#*********************************************************************
     lhapdf    = pdlabel     ! PDF set
     90900   = lhaid     ! if pdlabel=lhapdf, this is the lhapdf number
#*********************************************************************
# Renormalization and factorization scales                           *
#*********************************************************************
 False = fixed_ren_scale  ! if .true. use fixed ren scale
 False        = fixed_fac_scale  ! if .true. use fixed fac scale
 91.188  = scale            ! fixed ren scale
 91.188  = dsqrt_q2fact1    ! fixed fact scale for pdf1
 91.188  = dsqrt_q2fact2    ! fixed fact scale for pdf2
 -1 = dynamical_scale_choice ! Choose one of the preselected dynamical choices
 1.0  = scalefact        ! scale factor for event-by-event scales
#*********************************************************************
# Type and output format
#*********************************************************************
  False     = gridpack  !True = setting up the grid pack
  -1.0 = time_of_flight ! threshold (in mm) below which the invariant livetime is not written (-1 means not written)
  3.0 = lhe_version       ! Change the way clustering information pass to shower.        
  True = clusinfo         ! include clustering tag in output
  sum =  event_norm       ! average/sum. Normalization of the weight in the LHEF
#*********************************************************************
# Matching - Warning! ickkw > 1 is still beta
#*********************************************************************
 0 = ickkw            ! 0 no matching, 1 MLM, 2 CKKW matching
 1 = highestmult      ! for ickkw=2, highest mult group
 1 = ktscheme         ! for ickkw=1, 1 Durham kT, 2 Pythia pTE
 1.0 = alpsfact         ! scale factor for QCD emission vx
 False = chcluster        ! cluster only according to channel diag
 True = pdfwgt           ! for ickkw=1, perform pdf reweighting
 4 = asrwgtflavor     ! highest quark flavor for a_s reweight    
#*********************************************************************
#**********************************************************
#
#**********************************************************
# Automatic ptj and mjj cuts if xqcut > 0
# (turn off for VBF and single top processes)
#**********************************************************
   False  = auto_ptj_mjj  ! Automatic setting of ptj and mjj
#**********************************************************
#                                                                    
#**********************************
# BW cutoff (M+/-bwcutoff*Gamma)
#**********************************
  15.0  = bwcutoff      ! (M+/-bwcutoff*Gamma)
#**********************************************************
# Apply pt/E/eta/dr/mij/kt_durham cuts on decay products or not
# (note that etmiss/ptll/ptheavy/ht/sorted cuts always apply)
#*************************************************************
   False  = cut_decays    ! Cut decay products 
#*************************************************************
# Number of helicities to sum per event (0 = all helicities)
# 0 gives more stable result, but longer run time (needed for
# long decay chains e.g.).
# Use >=2 if most helicities contribute, e.g. pure QCD.
#*************************************************************
   0  = nhel          ! Number of helicities used per event
#*******************                                                 
# Standard Cuts
#*******************                                                 
#                                                                    
#*********************************************************************
# Minimum and maximum pt's (for max, -1 means no cut)                *
#*********************************************************************
 15.0  = ptj       ! minimum pt for the jets
 0.0  = ptb       ! minimum pt for the b 
 0.0 = pta       ! minimum pt for the photons
 25.0  = ptl       ! minimum pt for the charged leptons
 0.0  = misset    ! minimum missing Et (sum of neutrino's momenta)
 0.0  = ptheavy   ! minimum pt for one heavy final state
 -1.0  = ptjmax    ! maximum pt for the jets
 -1.0  = ptbmax    ! maximum pt for the b
 -1.0 = ptamax       ! maximum pt for the photons
 -1.0  = ptlmax    ! maximum pt for the charged leptons
 -1.0  = missetmax ! maximum missing Et (sum of neutrino's momenta)
#*********************************************************************
# Minimum and maximum E's (in the center of mass frame)              *
#*********************************************************************
  0.0  = ej     ! minimum E for the jets 
  0.0  = eb     ! minimum E for the b 
  0.0  = ea     ! minimum E for the photons 
  0.0  = el     ! minimum E for the charged leptons 
  -1.0   = ejmax ! maximum E for the jets
 -1.0   = ebmax ! maximum E for the b
 -1.0   = eamax ! maximum E for the photons
 -1.0   = elmax ! maximum E for the charged leptons
#*********************************************************************
# Maximum and minimum absolute rapidity (for max, -1 means no cut)   *
#*********************************************************************
 2.5 = etaj    ! max rap for the jets
  -1.0  = etab    ! max rap for the b
 3.0  = etaa    ! max rap for the photons
 2.5  = etal    ! max rap for the charged leptons
 0.0  = etajmin ! min rap for the jets
 0.0  = etabmin ! min rap for the b
 0.0  = etaamin ! min rap for the photons
 0.0  = etalmin ! main rap for the charged leptons
#*********************************************************************
# Minimum and maximum DeltaR distance                                *
#*********************************************************************
 0.0 = drjj    ! min distance between jets
 0.0 = drbb    ! min distance between b's
 0.0 = drll    ! min distance between leptons
 0.0 = draa    ! min distance between gammas
 0.0 = drbj    ! min distance between b and jet
 0.0 = draj    ! min distance between gamma and jet
 0.0 = drjl    ! min distance between jet and lepton
 0.0 = drab    ! min distance between gamma and b
 0.0 = drbl    ! min distance between b and lepton
 0.0 = dral    ! min distance between gamma and lepton
 -1.0  = drjjmax ! max distance between jets
 -1.0  = drbbmax ! max distance between b's
 -1.0  = drllmax ! max distance between leptons
 -1.0  = draamax ! max distance between gammas
 -1.0  = drbjmax ! max distance between b and jet
 -1.0  = drajmax ! max distance between gamma and jet
 -1.0  = drjlmax ! max distance between jet and lepton
 -1.0  = drabmax ! max distance between gamma and b
 -1.0  = drblmax ! max distance between b and lepton
 -1.0  = dralmax ! maxdistance between gamma and lepton
#*********************************************************************
# Minimum and maximum invariant mass for pairs                       *
# WARNING: for four lepton final state mmll cut require to have      *
#          different lepton masses for each flavor!                  *           
#*********************************************************************
 0.0   = mmjj    ! min invariant mass of a jet pair 
 0.0   = mmbb    ! min invariant mass of a b pair 
 0.0   = mmaa    ! min invariant mass of gamma gamma pair
 620   = mmll    ! min invariant mass of l+l- (same flavour) lepton pair
 -1.0  = mmjjmax ! max invariant mass of a jet pair
 -1.0  = mmbbmax ! max invariant mass of a b pair
 -1.0  = mmaamax ! max invariant mass of gamma gamma pair
 750  = mmllmax ! max invariant mass of l+l- (same flavour) lepton pair
#*********************************************************************
# Minimum and maximum invariant mass for all letpons                 *
#*********************************************************************
 0.0   = mmnl    ! min invariant mass for all letpons (l+- and vl) 
 -1.0  = mmnlmax ! max invariant mass for all letpons (l+- and vl) 
#*********************************************************************
# Minimum and maximum pt for 4-momenta sum of leptons                *
#*********************************************************************
 0.0   = ptllmin  ! Minimum pt for 4-momenta sum of leptons(l and vl)
 -1.0  = ptllmax  ! Maximum pt for 4-momenta sum of leptons(l and vl)
#*********************************************************************
# Inclusive cuts                                                     *
#*********************************************************************
 0.0  = xptj ! minimum pt for at least one jet  
 0.0  = xptb ! minimum pt for at least one b 
 0.0  = xpta ! minimum pt for at least one photon 
 0.0  = xptl ! minimum pt for at least one charged lepton 
#*********************************************************************
# Control the pt's of the jets sorted by pt                          *
#*********************************************************************
 0.0   = ptj1min ! minimum pt for the leading jet in pt
 0.0   = ptj2min ! minimum pt for the second jet in pt
 0.0   = ptj3min ! minimum pt for the third jet in pt
 0.0   = ptj4min ! minimum pt for the fourth jet in pt
 -1.0  = ptj1max ! maximum pt for the leading jet in pt 
 -1.0  = ptj2max ! maximum pt for the second jet in pt
 -1.0  = ptj3max ! maximum pt for the third jet in pt
 -1.0  = ptj4max ! maximum pt for the fourth jet in pt
 0   = cutuse  ! reject event if fails any (0) / all (1) jet pt cuts
#*********************************************************************
# Control the pt's of leptons sorted by pt                           *
#*********************************************************************
 0.0   = ptl1min ! minimum pt for the leading lepton in pt
 0.0   = ptl2min ! minimum pt for the second lepton in pt
 0.0   = ptl3min ! minimum pt for the third lepton in pt
 0.0   = ptl4min ! minimum pt for the fourth lepton in pt
 -1.0  = ptl1max ! maximum pt for the leading lepton in pt 
 -1.0  = ptl2max ! maximum pt for the second lepton in pt
 -1.0  = ptl3max ! maximum pt for the third lepton in pt
 -1.0  = ptl4max ! maximum pt for the fourth lepton in pt
#*********************************************************************
# Control the Ht(k)=Sum of k leading jets                            *
#*********************************************************************
 0.0   = htjmin ! minimum jet HT=Sum(jet pt)
 -1.0  = htjmax ! maximum jet HT=Sum(jet pt)
 0.0   = ihtmin  !inclusive Ht for all partons (including b)
 -1.0  = ihtmax  !inclusive Ht for all partons (including b)
 0.0   = ht2min ! minimum Ht for the two leading jets
 0.0   = ht3min ! minimum Ht for the three leading jets
 0.0   = ht4min ! minimum Ht for the four leading jets
 -1.0  = ht2max ! maximum Ht for the two leading jets
 -1.0  = ht3max ! maximum Ht for the three leading jets
 -1.0  = ht4max ! maximum Ht for the four leading jets
#***********************************************************************
# Photon-isolation cuts, according to hep-ph/9801442                   *
# When ptgmin=0, all the other parameters are ignored                  *
# When ptgmin>0, pta and draj are not going to be used                 *
#***********************************************************************
 0.0 = ptgmin ! Min photon transverse momentum
 0.4 = R0gamma ! Radius of isolation code
 1.0 = xn ! n parameter of eq.(3.4) in hep-ph/9801442
 1.0 = epsgamma ! epsilon_gamma parameter of eq.(3.4) in hep-ph/9801442
 True = isoEM ! isolate photons from EM energy (photons and leptons)
#*********************************************************************
# WBF cuts                                                           *
#*********************************************************************
 0.0   = xetamin ! minimum rapidity for two jets in the WBF case  
 0.0   = deltaeta ! minimum rapidity for two jets in the WBF case 
#*********************************************************************
# KT DURHAM CUT                                                      *
#*********************************************************************
 -1.0    =  ktdurham        
 0.4  =  dparameter 
#*********************************************************************
# maximal pdg code for quark to be considered as a light jet         *
# (otherwise b cuts are applied)                                     *
#*********************************************************************
 4 = maxjetflavor    ! Maximum jet pdg code
#*********************************************************************
# Jet measure cuts                                                   *
#*********************************************************************
 0.0   = xqcut   ! minimum kt jet measure between partons
#*********************************************************************
#
#*********************************************************************
# Store info for systematics studies                                 *
# WARNING: If use_syst is T, matched Pythia output is                *
#          meaningful ONLY if plotted taking matchscale              *
#          reweighting into account!                                 *
#*********************************************************************
#    False  = use_syst      ! Enable systematics studies # Commented out by MadMiner
#
#**************************************
# Parameter of the systematics study
#  will be used by SysCalc (if installed)
#**************************************                                  
#
0.5 1 2 = sys_scalefact  # factorization/renormalization scale factor
None = sys_alpsfact  # \alpha_s emission scale factors
30 50 = sys_matchscale # variation of merging scale
# PDF sets and number of members (0 or none for all members).
NNPDF23_lo_as_0130_qed = sys_pdf # matching scales
# MSTW2008nlo68cl.LHgrid 1  = sys_pdf


#*********************************************************************
# MadMiner systematics setup                                         *
#*********************************************************************
True = use_syst
systematics = systematics_program
['--pdf=90900'] = systematics_arguments
]]>
</MGRunCard>
<slha>
######################################################################
## PARAM_CARD AUTOMATICALY GENERATED BY MG5 FOLLOWING UFO MODEL   ####
######################################################################
##                                                                  ##
##  Width set on Auto will be computed following the information    ##
##        present in the decay.py files of the model.               ##
##        See  arXiv:1402.1178 for more details.                    ##
##                                                                  ##
######################################################################

###################################
## INFORMATION FOR CKMBLOCK
###################################
Block ckmblock 
    1 2.277360e-01 # cabi 

###################################
## INFORMATION FOR MASS
###################################
Block mass 
    5 4.700000e+00 # MB 
    6 1.720000e+02 # MT 
   15 1.777000e+00 # MTA 
   23 9.118760e+01 # MZ 
   25 1.250000e+02 # MH 
## Dependent parameters, given by model restrictions.
## Those values should be edited following the 
## analytical expression. MG5 ignores those values 
## but they are important for interfacing the output of MG5
## to external program such as Pythia.
  1 0.000000 # d : 0.0 
  2 0.000000 # u : 0.0 
  3 0.000000 # s : 0.0 
  4 0.000000 # c : 0.0 
  11 0.000000 # e- : 0.0 
  12 0.000000 # ve : 0.0 
  13 0.000000 # mu- : 0.0 
  14 0.000000 # vm : 0.0 
  16 0.000000 # vt : 0.0 
  21 0.000000 # g : 0.0 
  22 0.000000 # a : 0.0 
  24 79.824360 # w+ : cmath.sqrt(MZ__exp__2/2. + cmath.sqrt(MZ__exp__4/4. - (aEW*cmath.pi*MZ__exp__2)/(Gf*sqrt__2))) 

###################################
## INFORMATION FOR OBLIQUE
###################################
Block oblique 
    1    0.0    # MadMiner
    2    0.0    # MadMiner

###################################
## INFORMATION FOR SMINPUTS
###################################
Block sminputs 
    1 1.279000e+02 # aEWM1 
    2 1.166370e-05 # Gf 
    3 1.184000e-01 # aS 

###################################
## INFORMATION FOR YUKAWA
###################################
Block yukawa 
    5 4.700000e+00 # ymb 
    6 1.720000e+02 # ymt 
   15 1.777000e+00 # ymtau 

###################################
## INFORMATION FOR DECAY
###################################
DECAY   6 1.508336e+00 # WT 
DECAY  23 2.495200e+00 # WZ 
DECAY  24 2.085000e+00 # WW 
DECAY  25 4.070000e-03 # WH 
## Dependent parameters, given by model restrictions.
## Those values should be edited following the 
## analytical expression. MG5 ignores those values 
## but they are important for interfacing the output of MG5
## to external program such as Pythia.
DECAY  1 0.000000 # d : 0.0 
DECAY  2 0.000000 # u : 0.0 
DECAY  3 0.000000 # s : 0.0 
DECAY  4 0.000000 # c : 0.0 
DECAY  5 0.000000 # b : 0.0 
DECAY  11 0.000000 # e- : 0.0 
DECAY  12 0.000000 # ve : 0.0 
DECAY  13 0.000000 # mu- : 0.0 
DECAY  14 0.000000 # vm : 0.0 
DECAY  15 0.000000 # ta- : 0.0 
DECAY  16 0.000000 # vt : 0.0 
DECAY  21 0.000000 # g : 0.0 
DECAY  22 0.000000 # a : 0.0
</slha>
<initrwgt>
<weightgroup name='mg_reweighting' weight_name_strategy='includeIdInWeightName'>
<weight id='morphing_basis_vector_1'>set param_card oblique 1 -0.06391685 # orig: 0.0
set param_card oblique 2 -0.08653588 # orig: 0.0
</weight>
<weight id='morphing_basis_vector_2'>set param_card oblique 1 0.0342439 # orig: 0.0
set param_card oblique 2 -0.09831893 # orig: 0.0
</weight>
<weight id='morphing_basis_vector_3'>set param_card oblique 1 -0.08145691 # orig: 0.0
set param_card oblique 2 0.09700122 # orig: 0.0
</weight>
<weight id='morphing_basis_vector_4'>set param_card oblique 1 0.09132942 # orig: 0.0
set param_card oblique 2 -0.005442744 # orig: 0.0
</weight>
<weight id='morphing_basis_vector_5'>set param_card oblique 1 0.08535809 # orig: 0.0
set param_card oblique 2 0.08156918 # orig: 0.0
</weight>
</weightgroup>
</initrwgt>
<MGGenerationInfo>
#  Number of Events        :       1000
#  Integrated weight (pb)  :       0.0059529
</MGGenerationInfo>
</header>
<init>
2212 2212 6.500000e+03 6.500000e+03 0 0 90900 90900 -3 1
5.952900e-03 2.854148e-05 5.952900e-06 1
<generator name='MadGraph5_aMC@NLO' version='2.6.4'>please cite 1405.0301 </generator>
</init>
<event>
 4      1 +5.9529000e-06 6.62206900e+02 7.81860800e-03 9.09588400e-02
        2 -1    0    0  501    0 +0.0000000000e+00 +0.0000000000e+00 +1.7459894542e+03 1.7459894542e+03 0.0000000000e+00 0.0000e+00 1.0000e+00
       -2 -1    0    0    0  501 -0.0000000000e+00 -0.0000000000e+00 -6.2789330526e+01 6.2789330526e+01 0.0000000000e+00 0.0000e+00 -1.0000e+00
      -13  1    1    2    0    0 +3.2867657794e+02 +2.5377516161e+01 +9.2610703633e+02 9.8302927421e+02 0.0000000000e+00 0.0000e+00 1.0000e+00
       13  1    1    2    0    0 -3.2867657794e+02 -2.5377516161e+01 +7.5709308735e+02 8.2574951052e+02 0.0000000000e+00 0.0000e+00 -1.0000e+00
<mgrwt>
<rscale>  0 0.66220694E+03</rscale>
<asrwt>0</asrwt>
<pdfrwt beam="1">  1        2 0.26861373E+00 0.66220694E+03</pdfrwt>
<pdfrwt beam="2">  1       -2 0.96598983E-02 0.66220694E+03</pdfrwt>
<totfact> 0.76047471E+02</totfact>
</mgrwt>
<rwgt>
<wgt id='morphing_basis_vector_1'> +2.2782489e-04 </wgt>
<wgt id='morphing_basis_vector_2'> +1.5831604e-04 </wgt>
<wgt id='morphing_basis_vector_3'> +1.8319223e-04 </wgt>
<wgt id='morphing_basis_vector_4'> +7.6550925e-05 </wgt>
<wgt id='morphing_basis_vector_5'> +1.3289910e-04 </wgt>
</rwgt>
</event>
<event>
 4      1 +5.9529000e-06 6.50058600e+02 7.81860800e-03 9.11529700e-02
        2 -1    0    0  501    0 +0.0000000000e+00 +0.0000000000e+00 +3.0211535606e+02 3.0211535606e+02 0.0000000000e+00 0.0000e+00 1.0000e+00
       -2 -1    0    0    0  501 -0.0000000000e+00 -0.0000000000e+00 -3.4968111666e+02 3.4968111666e+02 0.0000000000e+00 0.0000e+00 -1.0000e+00
      -13  1    1    2    0    0 +7.4052616289e+01 -1.2246692886e+02 -3.1638851955e+02 3.4725154275e+02 0.0000000000e+00 0.0000e+00 -1.0000e+00
       13  1    1    2    0    0 -7.4052616289e+01 +1.2246692886e+02 +2.6882275895e+02 3.0454492997e+02 0.0000000000e+00 0.0000e+00 1.0000e+00
<mgrwt>
<rscale>  0 0.65005857E+03</rscale>
<asrwt>0</asrwt>
<pdfrwt beam="1">  1        2 0.46479286E-01 0.65005857E+03</pdfrwt>
<pdfrwt beam="2">  1       -2 0.53797095E-01 0.65005857E+03</pdfrwt>
<totfact> 0.43753653E+02</totfact>
</mgrwt>
<rwgt>
<wgt id='morphing_basis_vector_1'> +2.0429504e-04 </wgt>
<wgt id='morphing_basis_vector_2'> +1.1802789e-04 </wgt>
<wgt id='morphing_basis_vector_3'> +1.6840939e-04 </wgt>
<wgt id='morphing_basis_vector_4'> +7.9237864e-05 </wgt>
<wgt id='morphing_basis_vector_5'> +1.2152067e-04 </wgt>
</rwgt>
</event>
<event>
 4      1 +5.9529000e-06 6.20367200e+02 7.81860800e-03 9.16467900e-02
        2 -1    0    0  501    0 +0.0000000000e+00 +0.0000000000e+00 +1.0450310252e+03 1.0450310252e+03 0.0000000000e+00 0.0000e+00 1.0000e+00
       -2 -1    0    0    0  501 -0.0000000000e+00 -0.0000000000e+00 -9.2067950615e+01 9.2067950615e+01 0.0000000000e+00 0.0000e+00 -1.0000e+00
      -13  1    1    2    0    0 -2.5583381623e+02 -1.6887276458e+02 +3.8963566761e+02 4.9576698722e+02 0.0000000000e+00 0.0000e+00 1.0000e+00
       13  1    1    2    0    0 +2.5583381623e+02 +1.6887276458e+02 +5.6332740694e+02 6.4133198857e+02 0.0000000000e+00 0.0000e+00 -1.0000e+00
<mgrwt>
<rscale>  0 0.62036720E+03</rscale>
<asrwt>0</asrwt>
<pdfrwt beam="1">  1        2 0.16077399E+00 0.62036720E+03</pdfrwt>
<pdfrwt beam="2">  1       -2 0.14164301E-01 0.62036720E+03</pdfrwt>
<totfact> 0.10278188E+03</totfact>
</mgrwt>
<rwgt>
<wgt id='morphing_basis_vector_1'> +1.7828365e-04 </wgt>
<wgt id='morphing_basis_vector_2'> +1.1048200e-04 </wgt>
<wgt id='morphing_basis_vector_3'> +1.4134341e-04 </wgt>
<wgt id='morphing_basis_vector_4'> +6.0539292e-05 </wgt>
<wgt id='morphing_basis_vector_5'> +9.6288169e-05 </wgt>
</rwgt>
</event>
<event>
 4      1 +5.9529000e-06 6.26521100e+02 7.81860800e-03 9.15420900e-02
        2 -1    0    0  501    0 +0.0000000000e+00 +0.0000000000e+00 +3.9625546256e+02 3.9625546256e+02 0.0000000000e+00 0.0000e+00 1.0000e+00
       -2 -1    0    0    0  501 -0.0000000000e+00 -0.0000000000e+00 -2.4764873642e+02 2.4764873642e+02 0.0000000000e+00 0.0000e+00 -1.0000e+00
      -13  1    1    2    0    0 -2.1976471943e+02 +1.9603337484e+02 -3.5461338424e+01 2.9661949106e+02 0.0000000000e+00 0.0000e+00 -1.0000e+00
       13  1    1    2    0    0 +2.1976471943e+02 -1.9603337484e+02 +1.8406806457e+02 3.4728470791e+02 0.0000000000e+00 0.0000e+00 1.0000e+00
<mgrwt>
<rscale>  0 0.62652108E+03</rscale>
<asrwt>0</asrwt>
<pdfrwt beam="1">  1        2 0.60962379E-01 0.62652108E+03</pdfrwt>
<pdfrwt beam="2">  1       -2 0.38099806E-01 0.62652108E+03</pdfrwt>
<totfact> 0.62365144E+02</totfact>
</mgrwt>
<rwgt>
<wgt id='morphing_basis_vector_1'> +1.8230500e-04 </wgt>
<wgt id='morphing_basis_vector_2'> +1.0852770e-04 </wgt>
<wgt id='morphing_basis_vector_3'> +1.4657704e-04 </wgt>
<wgt id='morphing_basis_vector_4'> +6.5070041e-05 </wgt>
<wgt id='morphing_basis_vector_5'> +1.0118242e-04 </wgt>
</rwgt>
</event>
<event>
 4      1 +5.9529000e-06 6.64186100e+02 7.81860800e-03 9.09276300e-02
        2 -1    0    0  501    0 +0.0000000000e+00 +0.0000000000e+00 +1.2679695338e+03 1.2679695338e+03 0.0000000000e+00 0.0000e+00 -1.0000e+00
       -2 -1    0    0    0  501 -0.0000000000e+00 -0.0000000000e+00 -8.6978265976e+01 8.6978265976e+01 0.0000000000e+00 0.0000e+00 1.0000e+00
      -13  1    1    2    0    0 -2.4952632031e+02 +1.6958478701e+02 +3.0735686786e+02 4.3068623002e+02 0.0000000000e+00 0.0000e+00 1.0000e+00
       13  1    1    2    0    0 +2.4952632031e+02 -1.6958478701e+02 +8.7363439993e+02 9.2426156972e+02 0.0000000000e+00 0.0000e+00 -1.0000e+00
<mgrwt>
<rscale>  0 0.66418609E+03</rscale>
<asrwt>0</asrwt>
<pdfrwt beam="1">  1        2 0.19507222E+00 0.66418609E+03</pdfrwt>
<pdfrwt beam="2">  1       -2 0.13381273E-01 0.66418609E+03</pdfrwt>
<totfact> 0.83338974E+02</totfact>
</mgrwt>
<rwgt>
<wgt id='morphing_basis_vector_1'> +2.2095141e-04 </wgt>
<wgt id='morphing_basis_vector_2'> +1.3164442e-04 </wgt>
<wgt id='morphing_basis_vector_3'> +1.8314381e-04 </wgt>
<wgt id='morphing_basis_vector_4'> +8.6429169e-05 </wgt>
<wgt id='morphing_basis_vector_5'> +1.3499152e-04 </wgt>
</rwgt>
</event>
<event>
 4      1 +5.9529000e-06 7.22382300e+02 7.81860800e-03 9.00574100e-02
        2 -1    0    0  501    0 +0.0000000000e+00 +0.0000000000e+00 +9.9143084573e+02 9.9143084573e+02 0.0000000000e+00 0.0000e+00 1.0000e+00
       -2 -1    0    0    0  501 -0.0000000000e+00 -0.0000000000e+00 -1.3158663778e+02 1.3158663778e+02 0.0000000000e+00 0.0000e+00 -1.0000e+00
      -13  1    1    2    0    0 -1.9104805542e+02 -2.3909274411e+02 +1.3172048862e+02 3.3318911580e+02 0.0000000000e+00 0.0000e+00 -1.0000e+00
       13  1    1    2    0    0 +1.9104805542e+02 +2.3909274411e+02 +7.2812371934e+02 7.8982836771e+02 0.0000000000e+00 0.0000e+00 1.0000e+00
<mgrwt>
<rscale>  0 0.72238231E+03</rscale>
<asrwt>0</asrwt>
<pdfrwt beam="1">  1        2 0.15252782E+00 0.72238231E+03</pdfrwt>
<pdfrwt beam="2">  1       -2 0.20244099E-01 0.72238231E+03</pdfrwt>
<totfact> 0.61590472E+02</totfact>
</mgrwt>
<rwgt>
<wgt id='morphing_basis_vector_1'> +2.9348562e-04 </wgt>
<wgt id='morphing_basis_vector_2'> +1.7581649e-04 </wgt>
<wgt id='morphing_basis_vector_3'> +2.5294882e-04 </wgt>
<wgt id='morphing_basis_vector_4'> +1.2872589e-04 </wgt>
<wgt id='morphing_basis_vector_5'> +2.0187027e-04 </wgt>
</rwgt>
</event>
<event>
 4      1 +5.9529000e-06 6.93360400e+02 7.81860800e-03 9.04802600e-02
        2 -1    0    0  501    0 +0.0000000000e+00 +0.0000000000e+00 +2.1758117104e+03 2.1758117104e+03 0.0000000000e+00 0.0000e+00 -1.0000e+00
       -2 -1    0    0    0  501 -0.0000000000e+00 -0.0000000000e+00 -5.5237852392e+01 5.5237852392e+01 0.0000000000e+00 0.0000e+00 1.0000e+00
      -13  1    1    2    0    0 -4.5765728884e+01 -3.4321341807e+02 +1.0048135442e+03 1.0627982927e+03 0.0000000000e+00 0.0000e+00 1.0000e+00
       13  1    1    2    0    0 +4.5765728884e+01 +3.4321341807e+02 +1.1157603138e+03 1.1682512701e+03 0.0000000000e+00 0.0000e+00 -1.0000e+00
<mgrwt>
<rscale>  0 0.69336041E+03</rscale>
<asrwt>0</asrwt>
<pdfrwt beam="1">  1        2 0.33474020E+00 0.69336041E+03</pdfrwt>
<pdfrwt beam="2">  1       -2 0.84981328E-02 0.69336041E+03</pdfrwt>
<totfact> 0.53747810E+02</totfact>
</mgrwt>
<rwgt>
<wgt id='morphing_basis_vector_1'> +2.6137646e-04 </wgt>
<wgt id='morphing_basis_vector_2'> +1.7132993e-04 </wgt>
<wgt id='morphing_basis_vector_3'> +2.1800073e-04 </wgt>
<wgt id='morphing_basis_vector_4'> +9.9778378e-05 </wgt>
<wgt id='morphing_basis_vector_5'> +1.6598379e-04 </wgt>
</rwgt>
</event>
<event>
 4      1 +5.9529000e-06 6.24923100e+02 7.81860800e-03 9.15691500e-02
        2 -1    0    0  501    0 +0.0000000000e+00 +0.0000000000e+00 +1.8098764318e+03 1.8098764318e+03 0.0000000000e+00 0.0000e+00 -1.0000e+00
       -2 -1    0    0    0  501 -0.0000000000e+00 -0.0000000000e+00 -5.3944138819e+01 5.3944138819e+01 0.0000000000e+00 0.0000e+00 1.0000e+00
      -13  1    1    2    0    0 -2.8877302896e+02 +8.1986333718e+01 +1.1366110232e+03 1.1755833612e+03 0.0000000000e+00 0.0000e+00 1.0000e+00
       13  1    1    2    0    0 +2.8877302896e+02 -8.1986333718e+01 +6.1932126980e+02 6.8823720940e+02 0.0000000000e+00 0.0000e+00 -1.0000e+00
<mgrwt>
<rscale>  0 0.62492312E+03</rscale>
<asrwt>0</asrwt>
<pdfrwt beam="1">  1        2 0.27844248E+00 0.62492312E+03</pdfrwt>
<pdfrwt beam="2">  1       -2 0.82990997E-02 0.62492312E+03</pdfrwt>
<totfact> 0.89128468E+02</totfact>
</mgrwt>
<rwgt>
<wgt id='morphing_basis_vector_1'> +1.9514406e-04 </wgt>
<wgt id='morphing_basis_vector_2'> +1.5206349e-04 </wgt>
<wgt id='morphing_basis_vector_3'> +1.4674300e-04 </wgt>
<wgt id='morphing_basis_vector_4'> +5.2089707e-05 </wgt>
<wgt id='morphing_basis_vector_5'> +9.9845413e-05 </wgt>
</rwgt>
</event>
<event>
 4      1 +5.9529000e-06 7.12068700e+02 7.81860800e-03 9.02052800e-02
        2 -1    0    0  501    0 +0.0000000000e+00 +0.0000000000e+00 +2.7384376952e+02 2.7384376952e+02 0.0000000000e+00 0.0000e+00 -1.0000e+00
       -2 -1    0    0    0  501 -0.0000000000e+00 -0.0000000000e+00 -4.6289335543e+02 4.6289335543e+02 0.0000000000e+00 0.0000e+00 1.0000e+00
      -13  1    1    2    0    0 -2.3436725158e+02 -2.1670595480e+02 -2.5769359283e+02 4.1023830543e+02 0.0000000000e+00 0.0000e+00 1.0000e+00
       13  1    1    2    0    0 +2.3436725158e+02 +2.1670595480e+02 +6.8644006928e+01 3.2649881952e+02 0.0000000000e+00 0.0000e+00 -1.0000e+00
<mgrwt>
<rscale>  0 0.71206871E+03</rscale>
<asrwt>0</asrwt>
<pdfrwt beam="1">  1        2 0.42129811E-01 0.71206871E+03</pdfrwt>
<pdfrwt beam="2">  1       -2 0.71214362E-01 0.71206871E+03</pdfrwt>
<totfact> 0.27342792E+02</totfact>
</mgrwt>
<rwgt>
<wgt id='morphing_basis_vector_1'> +2.7986828e-04 </wgt>
<wgt id='morphing_basis_vector_2'> +1.6860740e-04 </wgt>
<wgt id='morphing_basis_vector_3'> +2.3947404e-04 </wgt>
<wgt id='morphing_basis_vector_4'> +1.1983246e-04 </wgt>
<wgt id='morphing_basis_vector_5'> +1.8858916e-04 </wgt>
</rwgt>
</event>
<event>
 4      1 +5.9529000e-06 6.80636900e+02 7.81860800e-03 9.06724900e-02
        2 -1    0    0  501    0 +0.0000000000e+00 +0.0000000000e+00 +8.4163278398e+02 8.4163278398e+02 0.0000000000e+00 0.0000e+00 1.0000e+00
       -2 -1    0    0    0  501 -0.0000000000e+00 -0.0000000000e+00 -1.3760947175e+02 1.3760947175e+02 0.0000000000e+00 0.0000e+00 -1.0000e+00
      -13  1    1    2    0    0 +3.2818579197e+02 +2.2316121675e+01 +2.2648250925e+02 3.9937232044e+02 0.0000000000e+00 0.0000e+00 -1.0000e+00
       13  1    1    2    0    0 -3.2818579197e+02 -2.2316121675e+01 +4.7754080297e+02 5.7986993528e+02 0.0000000000e+00 0.0000e+00 1.0000e+00
<mgrwt>
<rscale>  0 0.68063689E+03</rscale>
<asrwt>0</asrwt>
<pdfrwt beam="1">  1        2 0.12948196E+00 0.68063689E+03</pdfrwt>
<pdfrwt beam="2">  1       -2 0.21170688E-01 0.68063689E+03</pdfrwt>
<totfact> 0.71466597E+02</totfact>
</mgrwt>
<rwgt>
<wgt id='morphing_basis_vector_1'> +2.4158983e-04 </wgt>
<wgt id='morphing_basis_vector_2'> +1.4856955e-04 </wgt>
<wgt id='morphing_basis_vector_3'> +2.0167148e-04 </wgt>
<wgt id='morphing_basis_vector_4'> +9.5379244e-05 </wgt>
<wgt id='morphing_basis_vector_5'> +1.5195297e-04 </wgt>
</rwgt>
</event>
<event>
 4      1 +5.9529000e-06 7.04316300e+02 7.81860800e-03 9.03181500e-02
        2 -1    0    0  501    0 +0.0000000000e+00 +0.0000000000e+00 +1.1657465596e+03 1.1657465596e+03 0.0000000000e+00 0.0000e+00 -1.0000e+00
       -2 -1    0    0    0  501 -0.0000000000e+00 -0.0000000000e+00 -1.0638278934e+02 1.0638278934e+02 0.0000000000e+00 0.0000e+00 1.0000e+00
      -13  1    1    2    0    0 -1.5802148129e+01 +2.8816382591e+02 +1.6517462702e+02 3.3252181261e+02 0.0000000000e+00 0.0000e+00 1.0000e+00
       13  1    1    2    0    0 +1.5802148129e+01 -2.8816382591e+02 +8.9418914327e+02 9.3960753637e+02 0.0000000000e+00 0.0000e+00 -1.0000e+00
<mgrwt>
<rscale>  0 0.70431632E+03</rscale>
<asrwt>0</asrwt>
<pdfrwt beam="1">  1        2 0.17934562E+00 0.70431632E+03</pdfrwt>
<pdfrwt beam="2">  1       -2 0.16366584E-01 0.70431632E+03</pdfrwt>
<totfact> 0.68803504E+02</totfact>
</mgrwt>
<rwgt>
<wgt id='morphing_basis_vector_1'> +2.6878103e-04 </wgt>
<wgt id='morphing_basis_vector_2'> +1.5969306e-04 </wgt>
<wgt id='morphing_basis_vector_3'> +2.2926818e-04 </wgt>
<wgt id='morphing_basis_vector_4'> +1.1471365e-04 </wgt>
<wgt id='morphing_basis_vector_5'> +1.7905998e-04 </wgt>
</rwgt>
</event>
<event>
 4      1 +5.9529000e-06 6.47810200e+02 7.81860800e-03 9.11893900e-02
        2 -1    0    0  501    0 +0.0000000000e+00 +0.0000000000e+00 +1.1199645578e+02 1.1199645578e+02 0.0000000000e+00 0.0000e+00 -1.0000e+00
       -2 -1    0    0    0  501 -0.0000000000e+00 -0.0000000000e+00 -9.3676624129e+02 9.3676624129e+02 0.0000000000e+00 0.0000e+00 1.0000e+00
      -13  1    1    2    0    0 +1.1312547180e+02 -3.0304763898e+02 -3.8533098516e+02 5.0310556744e+02 0.0000000000e+00 0.0000e+00 1.0000e+00
       13  1    1    2    0    0 -1.1312547180e+02 +3.0304763898e+02 -4.3943880035e+02 5.4565712963e+02 0.0000000000e+00 0.0000e+00 -1.0000e+00
<mgrwt>
<rscale>  0 0.64781015E+03</rscale>
<asrwt>0</asrwt>
<pdfrwt beam="1">  1        2 0.17230223E-01 0.64781015E+03</pdfrwt>
<pdfrwt beam="2">  1       -2 0.14411789E+00 0.64781015E+03</pdfrwt>
<totfact> 0.13936376E+02</totfact>
</mgrwt>
<rwgt>
<wgt id='morphing_basis_vector_1'> +2.1027704e-04 </wgt>
<wgt id='morphing_basis_vector_2'> +1.4236277e-04 </wgt>
<wgt id='morphing_basis_vector_3'> +1.6777099e-04 </wgt>
<wgt id='morphing_basis_vector_4'> +7.0317421e-05 </wgt>
<wgt id='morphing_basis_vector_5'> +1.1937211e-04 </wgt>
</rwgt>
</event>
<event>
 4      1 +5.9529000e-06 7.28833200e+02 7.81860800e-03 8.99662300e-02
        2 -1    0    0  501    0 +0.0000000000e+00 +0.0000000000e+00 +4.1649943250e+02 4.1649943250e+02 0.0000000000e+00 0.0000e+00 -1.0000e+00
       -2 -1    0    0    0  501 -0.0000000000e+00 -0.0000000000e+00 -3.1884665413e+02 3.1884665413e+02 0.0000000000e+00 0.0000e+00 1.0000e+00
      -13  1    1    2    0    0 -2.6232274712e+02 -1.6032985324e+02 +2.4622896735e+02 3.9388778841e+02 0.0000000000e+00 0.0000e+00 1.0000e+00
       13  1    1    2    0    0 +2.6232274712e+02 +1.6032985324e+02 -1.4857618897e+02 3.4145829822e+02 0.0000000000e+00 0.0000e+00 -1.0000e+00
<mgrwt>
<rscale>  0 0.72883318E+03</rscale>
<asrwt>0</asrwt>
<pdfrwt beam="1">  1        2 0.64076836E-01 0.72883318E+03</pdfrwt>
<pdfrwt beam="2">  1       -2 0.49053331E-01 0.72883318E+03</pdfrwt>
<totfact> 0.36461891E+02</totfact>
</mgrwt>
<rwgt>
<wgt id='morphing_basis_vector_1'> +3.6064609e-04 </wgt>
<wgt id='morphing_basis_vector_2'> +3.6005969e-04 </wgt>
<wgt id='morphing_basis_vector_3'> +2.8660611e-04 </wgt>
<wgt id='morphing_basis_vector_4'> +6.9237498e-05 </wgt>
<wgt id='morphing_basis_vector_5'> +2.0843576e-04 </wgt>
</rwgt>
</event>
<event>
 4      1 +5.9529000e-06 6.20537500e+02 7.81860800e-03 9.16438800e-02
        2 -1    0    0  501    0 +0.0000000000e+00 +0.0000000000e+00 +9.7707390168e+02 9.7707390168e+02 0.0000000000e+00 0.0000e+00 1.0000e+00
       -2 -1    0    0    0  501 -0.0000000000e+00 -0.0000000000e+00 -9.8525491892e+01 9.8525491892e+01 0.0000000000e+00 0.0000e+00 -1.0000e+00
      -13  1    1    2    0    0 -2.4772114454e+02 -1.0853862781e+02 +1.7571441261e+02 3.2252434634e+02 0.0000000000e+00 0.0000e+00 -1.0000e+00
       13  1    1    2    0    0 +2.4772114454e+02 +1.0853862781e+02 +7.0283399718e+02 7.5307504724e+02 0.0000000000e+00 0.0000e+00 1.0000e+00
<mgrwt>
<rscale>  0 0.62053747E+03</rscale>
<asrwt>0</asrwt>
<pdfrwt beam="1">  1        2 0.15031906E+00 0.62053747E+03</pdfrwt>
<pdfrwt beam="2">  1       -2 0.15157769E-01 0.62053747E+03</pdfrwt>
<totfact> 0.10140996E+03</totfact>
</mgrwt>
<rwgt>
<wgt id='morphing_basis_vector_1'> +1.7582819e-04 </wgt>
<wgt id='morphing_basis_vector_2'> +1.0248243e-04 </wgt>
<wgt id='morphing_basis_vector_3'> +1.4124419e-04 </wgt>
<wgt id='morphing_basis_vector_4'> +6.2803482e-05 </wgt>
<wgt id='morphing_basis_vector_5'> +9.6426483e-05 </wgt>
</rwgt>
</event>
<event>
 4      1 +5.9529000e-06 6.99139300e+02 7.81860800e-03 9.03943700e-02
        2 -1    0    0  501    0 +0.0000000000e+00 +0.0000000000e+00 +1.8898956457e+03 1.8898956457e+03 0.0000000000e+00 0.0000e+00 -1.0000e+00
       -2 -1    0    0    0  501 -0.0000000000e+00 -0.0000000000e+00 -6.4659093228e+01 6.4659093228e+01 0.0000000000e+00 0.0000e+00 1.0000e+00
      -13  1    1    2    0    0 +1.8810021721e+02 +2.3561535305e+02 +4.1799483510e+02 5.1537944126e+02 0.0000000000e+00 0.0000e+00 1.0000e+00
       13  1    1    2    0    0 -1.8810021721e+02 -2.3561535305e+02 +1.4072417173e+03 1.4391752976e+03 0.0000000000e+00 0.0000e+00 -1.0000e+00
<mgrwt>
<rscale>  0 0.69913930E+03</rscale>
<asrwt>0</asrwt>
<pdfrwt beam="1">  1        2 0.29075313E+00 0.69913930E+03</pdfrwt>
<pdfrwt beam="2">  1       -2 0.99475542E-02 0.69913930E+03</pdfrwt>
<totfact> 0.60445521E+02</totfact>
</mgrwt>
<rwgt>
<wgt id='morphing_basis_vector_1'> +2.6240594e-04 </wgt>
<wgt id='morphing_basis_vector_2'> +1.5650172e-04 </wgt>
<wgt id='morphing_basis_vector_3'> +2.2294792e-04 </wgt>
<wgt id='morphing_basis_vector_4'> +1.1049837e-04 </wgt>
<wgt id='morphing_basis_vector_5'> +1.7286593e-04 </wgt>
</rwgt>
</event>
<event>
 4      1 +5.9529000e-06 6.29837500e+02 7.81860800e-03 9.14861800e-02
        2 -1    0    0  501    0 +0.0000000000e+00 +0.0000000000e+00 +5.1523619624e+02 5.1523619624e+02 0.0000000000e+00 0.0000e+00 1.0000e+00
       -2 -1    0    0    0  501 -0.0000000000e+00 -0.0000000000e+00 -1.9248226493e+02 1.9248226493e+02 0.0000000000e+00 0.0000e+00 -1.0000e+00
      -13  1    1    2    0    0 -2.0903536427e+02 -1.4116425389e+02 -5.0486495928e+01 2.5723922011e+02 0.0000000000e+00 0.0000e+00 -1.0000e+00
       13  1    1    2    0    0 +2.0903536427e+02 +1.4116425389e+02 +3.7324042724e+02 4.5047924105e+02 0.0000000000e+00 0.0000e+00 1.0000e+00
<mgrwt>
<rscale>  0 0.62983753E+03</rscale>
<asrwt>0</asrwt>
<pdfrwt beam="1">  1        2 0.79267107E-01 0.62983753E+03</pdfrwt>
<pdfrwt beam="2">  1       -2 0.29612656E-01 0.62983753E+03</pdfrwt>
<totfact> 0.72831113E+02</totfact>
</mgrwt>
<rwgt>
<wgt id='morphing_basis_vector_1'> +1.8431321e-04 </wgt>
<wgt id='morphing_basis_vector_2'> +1.0682948e-04 </wgt>
<wgt id='morphing_basis_vector_3'> +1.4940296e-04 </wgt>
<wgt id='morphing_basis_vector_4'> +6.7775305e-05 </wgt>
<wgt id='morphing_basis_vector_5'> +1.0389507e-04 </wgt>
</rwgt>
</event>
<event>
 4      1 +5.9529000e-06 6.25373800e+02 7.81860800e-03 9.15615100e-02
        2 -1    0    0  501    0 +0.0000000000e+00 +0.0000000000e+00 +4.9134580379e+02 4.9134580379e+02 0.0000000000e+00 0.0000e+00 -1.0000e+00
       -2 -1    0    0    0  501 -0.0000000000e+00 -0.0000000000e+00 -1.9899037130e+02 1.9899037130e+02 0.0000000000e+00 0.0000e+00 1.0000e+00
      -13  1    1    2    0    0 +1.1964673255e+02 +3.5032107602e+01 -1.7036872185e+02 2.1111155951e+02 0.0000000000e+00 0.0000e+00 1.0000e+00
       13  1    1    2    0    0 -1.1964673255e+02 -3.5032107602e+01 +4.6272415434e+02 4.7922461558e+02 0.0000000000e+00 0.0000e+00 -1.0000e+00
<mgrwt>
<rscale>  0 0.62537376E+03</rscale>
<asrwt>0</asrwt>
<pdfrwt beam="1">  1        2 0.75591661E-01 0.62537376E+03</pdfrwt>
<pdfrwt beam="2">  1       -2 0.30613904E-01 0.62537376E+03</pdfrwt>
<totfact> 0.72514783E+02</totfact>
</mgrwt>
<rwgt>
<wgt id='morphing_basis_vector_1'> +1.7961604e-04 </wgt>
<wgt id='morphing_basis_vector_2'> +1.0291472e-04 </wgt>
<wgt id='morphing_basis_vector_3'> +1.4537957e-04 </wgt>
<wgt id='morphing_basis_vector_4'> +6.5849782e-05 </wgt>
<wgt id='morphing_basis_vector_5'> +1.0026359e-04 </wgt>
</rwgt>
</event>
<event>
 4      1 +5.9529000e-06 6.43850000e+02 7.81860800e-03 9.12539100e-02
        2 -1    0    0  501    0 +0.0000000000e+00 +0.0000000000e+00 +9.7986049342e+02 9.7986049342e+02 0.0000000000e+00 0.0000e+00 1.0000e+00
       -2 -1    0    0    0  501 -0.0000000000e+00 -0.0000000000e+00 -1.0576576781e+02 1.0576576781e+02 0.0000000000e+00 0.0000e+00 -1.0000e+00
      -13  1    1    2    0    0 -3.0326753064e+02 -1.0463042301e+02 +3.9189835271e+02 5.0646129113e+02 0.0000000000e+00 0.0000e+00 -1.0000e+00
       13  1    1    2    0    0 +3.0326753064e+02 +1.0463042301e+02 +4.8219637289e+02 5.7916497010e+02 0.0000000000e+00 0.0000e+00 1.0000e+00
<mgrwt>
<rscale>  0 0.64384997E+03</rscale>
<asrwt>0</asrwt>
<pdfrwt beam="1">  1        2 0.15074776E+00 0.64384997E+03</pdfrwt>
<pdfrwt beam="2">  1       -2 0.16271657E-01 0.64384997E+03</pdfrwt>
<totfact> 0.89985954E+02</totfact>
</mgrwt>
<rwgt>
<wgt id='morphing_basis_vector_1'> +2.0283382e-04 </wgt>
<wgt id='morphing_basis_vector_2'> +1.2949465e-04 </wgt>
<wgt id='morphing_basis_vector_3'> +1.6323953e-04 </wgt>
<wgt id='morphing_basis_vector_4'> +7.1194491e-05 </wgt>
<wgt id='morphing_basis_vector_5'> +1.1585386e-04 </wgt>
</rwgt>
</event>
<event>
 4      1 +5.9529000e-06 6.57170300e+02 7.81860800e-03 9.10387900e-02
        2 -1    0    0  501    0 +0.0000000000e+00 +0.0000000000e+00 +6.8497445940e+02 6.8497445940e+02 0.0000000000e+00 0.0000e+00 1.0000e+00
       -2 -1    0    0    0  501 -0.0000000000e+00 -0.0000000000e+00 -1.5762367898e+02 1.5762367898e+02 0.0000000000e+00 0.0000e+00 -1.0000e+00
      -13  1    1    2    0    0 -1.0622649814e+02 -2.8123386414e+01 -1.3336664419e+02 1.7280525326e+02 0.0000000000e+00 0.0000e+00 -1.0000e+00
       13  1    1    2    0    0 +1.0622649814e+02 +2.8123386414e+01 +6.6071742461e+02 6.6979288512e+02 0.0000000000e+00 0.0000e+00 1.0000e+00
<mgrwt>
<rscale>  0 0.65717028E+03</rscale>
<asrwt>0</asrwt>
<pdfrwt beam="1">  1        2 0.10538068E+00 0.65717028E+03</pdfrwt>
<pdfrwt beam="2">  1       -2 0.24249797E-01 0.65717028E+03</pdfrwt>
<totfact> 0.73626903E+02</totfact>
</mgrwt>
<rwgt>
<wgt id='morphing_basis_vector_1'> +2.1186758e-04 </wgt>
<wgt id='morphing_basis_vector_2'> +1.2264091e-04 </wgt>
<wgt id='morphing_basis_vector_3'> +1.7554242e-04 </wgt>
<wgt id='morphing_basis_vector_4'> +8.3453004e-05 </wgt>
<wgt id='morphing_basis_vector_5'> +1.2818823e-04 </wgt>
</rwgt>
</event>
<event>
 4      1 +5.9529000e-06 7.00428300e+02 7.81860800e-03 9.03753300e-02
        2 -1    0    0  501    0 +0.0000000000e+00 +0.0000000000e+00 +6.0664595505e+02 6.0664595505e+02 0.0000000000e+00 0.0000e+00 1.0000e+00
       -2 -1    0    0    0  501 -0.0000000000e+00 -0.0000000000e+00 -2.0217716937e+02 2.0217716937e+02 0.0000000000e+00 0.0000e+00 -1.0000e+00
      -13  1    1    2    0    0 +6.6760382077e+01 +2.7495920049e+02 +4.4054642852e+02 5.2358444040e+02 0.0000000000e+00 0.0000e+00 1.0000e+00
       13  1    1    2    0    0 -6.6760382077e+01 -2.7495920049e+02 -3.6077642838e+01 2.8523868402e+02 0.0000000000e+00 0.0000e+00 -1.0000e+00
<mgrwt>
<rscale>  0 0.70042833E+03</rscale>
<asrwt>0</asrwt>
<pdfrwt beam="1">  1        2 0.93330146E-01 0.70042833E+03</pdfrwt>
<pdfrwt beam="2">  1       -2 0.31104180E-01 0.70042833E+03</pdfrwt>
<totfact> 0.55168396E+02</totfact>
</mgrwt>
<rwgt>
<wgt id='morphing_basis_vector_1'> +3.2151636e-04 </wgt>
<wgt id='morphing_basis_vector_2'> +3.3463417e-04 </wgt>
<wgt id='morphing_basis_vector_3'> +2.4463509e-04 </wgt>
<wgt id='morphing_basis_vector_4'> +5.0989399e-05 </wgt>
<wgt id='morphing_basis_vector_5'> +1.7281790e-04 </wgt>
</rwgt>
</event>
<event>
 4      1 +5.9529000e-06 7.13772800e+02 7.81860800e-03 9.01806700e-02
        2 -1    0    0  501    0 +0.0000000000e+00 +0.0000000000e+00 +9.0299430871e+02 9.0299430871e+02 0.0000000000e+00 0.0000e+00 1.0000e+00
       -2 -1    0    0    0  501 -0.0000000000e+00 -0.0000000000e+00 -1.4105062670e+02 1.4105062670e+02 0.0000000000e+00 0.0000e+00 -1.0000e+00
      -13  1    1    2    0    0 +3.3135879175e+02 -1.2211072777e+02 +3.0555717380e+02 4.6698486610e+02 0.0000000000e+00 0.0000e+00 -1.0000e+00
       13  1    1    2    0    0 -3.3135879175e+02 +1.2211072777e+02 +4.5638650822e+02 5.7706006931e+02 0.0000000000e+00 0.0000e+00 1.0000e+00
<mgrwt>
<rscale>  0 0.71377283E+03</rscale>
<asrwt>0</asrwt>
<pdfrwt beam="1">  1        2 0.13892220E+00 0.71377283E+03</pdfrwt>
<pdfrwt beam="2">  1       -2 0.21700097E-01 0.71377283E+03</pdfrwt>
<totfact> 0.62400967E+02</totfact>
</mgrwt>
<rwgt>
<wgt id='morphing_basis_vector_1'> +2.8629244e-04 </wgt>
<wgt id='morphing_basis_vector_2'> +1.8274551e-04 </wgt>
<wgt id='morphing_basis_vector_3'> +2.4329273e-04 </wgt>
<wgt id='morphing_basis_vector_4'> +1.1670603e-04 </wgt>
<wgt id='morphing_basis_vector_5'> +1.9060758e-04 </wgt>
</rwgt>
</event>
<event>
 4      1 +5.9529000e-06 6.29387000e+02 7.81860800e-03 9.14937600e-02
        2 -1    0    0  501    0 +0.0000000000e+00 +0.0000000000e+00 +6.6774109315e+02 6.6774109315e+02 0.0000000000e+00 0.0000e+00 -1.0000e+00
       -2 -1    0    0    0  501 -0.0000000000e+00 -0.0000000000e+00 -1.4830896697e+02 1.4830896697e+02 0.0000000000e+00 0.0000e+00 1.0000e+00
      -13  1    1    2    0    0 +1.5130402518e+02 +2.5815272526e+02 +1.3336607278e+02 3.2760074322e+02 0.0000000000e+00 0.0000e+00 1.0000e+00
       13  1    1    2    0    0 -1.5130402518e+02 -2.5815272526e+02 +3.8606605340e+02 4.8844931690e+02 0.0000000000e+00 0.0000e+00 -1.0000e+00
<mgrwt>
<rscale>  0 0.62938698E+03</rscale>
<asrwt>0</asrwt>
<pdfrwt beam="1">  1        2 0.10272940E+00 0.62938698E+03</pdfrwt>
<pdfrwt beam="2">  1       -2 0.22816764E-01 0.62938698E+03</pdfrwt>
<totfact> 0.84227608E+02</totfact>
</mgrwt>
<rwgt>
<wgt id='morphing_basis_vector_1'> +1.8531751e-04 </wgt>
<wgt id='morphing_basis_vector_2'> +1.1102048e-04 </wgt>
<wgt id='morphing_basis_vector_3'> +1.4917904e-04 </wgt>
<wgt id='morphing_basis_vector_4'> +6.6302096e-05 </wgt>
<wgt id='morphing_basis_vector_5'> +1.0351701e-04 </wgt>
</rwgt>
</event>
<event>
 4      1 +5.9529000e-06 6.91182100e+02 7.81860800e-03 9.05128700e-02
        2 -1    0    0  501    0 +0.0000000000e+00 +0.0000000000e+00 +1.1543250637e+03 1.1543250637e+03 0.0000000000e+00 0.0000e+00 -1.0000e+00
       -2 -1    0    0    0  501 -0.0000000000e+00 -0.0000000000e+00 -1.0346581761e+02 1.0346581761e+02 0.0000000000e+00 0.0000e+00 1.0000e+00
      -13  1    1    2    0    0 -2.8748872255e+02 +1.9157723627e+02 +5.4186641156e+02 6.4262805030e+02 0.0000000000e+00 0.0000e+00 1.0000e+00
       13  1    1    2    0    0 +2.8748872255e+02 -1.9157723627e+02 +5.0899283450e+02 6.1516283099e+02 0.0000000000e+00 0.0000e+00 -1.0000e+00
<mgrwt>
<rscale>  0 0.69118214E+03</rscale>
<asrwt>0</asrwt>
<pdfrwt beam="1">  1        2 0.17758846E+00 0.69118214E+03</pdfrwt>
<pdfrwt beam="2">  1       -2 0.15917819E-01 0.69118214E+03</pdfrwt>
<totfact> 0.73140648E+02</totfact>
</mgrwt>
<rwgt>
<wgt id='morphing_basis_vector_1'> +2.6088976e-04 </wgt>
<wgt id='morphing_basis_vector_2'> +1.7651583e-04 </wgt>
<wgt id='morphing_basis_vector_3'> +2.1608012e-04 </wgt>
<wgt id='morphing_basis_vector_4'> +9.5960346e-05 </wgt>
<wgt id='morphing_basis_vector_5'> +1.6344763e-04 </wgt>
</rwgt>
</event>
<event>
 4      1 +5.9529000e-06 6.75304300e+02 7.81860800e-03 9.07543600e-02
        2 -1    0    0  501    0 +0.0000000000e+00 +0.0000000000e+00 +1.4073179602e+03 1.4073179602e+03 0.0000000000e+00 0.0000e+00 -1.0000e+00
       -2 -1    0    0    0  501 -0.0000000000e+00 -0.0000000000e+00 -8.1011527898e+01 8.1011527898e+01 0.0000000000e+00 0.0000e+00 1.0000e+00
      -13  1    1    2    0    0 -2.6021402521e+02 -1.9962483117e+02 +4.8618410720e+02 5.8646090938e+02 0.0000000000e+00 0.0000e+00 1.0000e+00
       13  1    1    2    0    0 +2.6021402521e+02 +1.9962483117e+02 +8.4012232506e+02 9.0186857867e+02 0.0000000000e+00 0.0000e+00 -1.0000e+00
<mgrwt>
<rscale>  0 0.67530431E+03</rscale>
<asrwt>0</asrwt>
<pdfrwt beam="1">  1        2 0.21651044E+00 0.67530431E+03</pdfrwt>
<pdfrwt beam="2">  1       -2 0.12463313E-01 0.67530431E+03</pdfrwt>
<totfact> 0.77952960E+02</totfact>
</mgrwt>
<rwgt>
<wgt id='morphing_basis_vector_1'> +2.3546604e-04 </wgt>
<wgt id='morphing_basis_vector_2'> +1.4516538e-04 </wgt>
<wgt id='morphing_basis_vector_3'> +1.9569769e-04 </wgt>
<wgt id='morphing_basis_vector_4'> +9.1699626e-05 </wgt>
<wgt id='morphing_basis_vector_5'> +1.4628632e-04 </wgt>
</rwgt>
</event>
<event>
 4      1 +5.9529000e-06 7.04371300e+02 7.81860800e-03 9.03173500e-02
        2 -1    0    0  501    0 +0.0000000000e+00 +0.0000000000e+00 +2.9662018857e+02 2.9662018857e+02 0.0000000000e+00 0.0000e+00 1.0000e+00
       -2 -1    0    0    0  501 -0.0000000000e+00 -0.0000000000e+00 -4.1816014746e+02 4.1816014746e+02 0.0000000000e+00 0.0000e+00 -1.0000e+00
      -13  1    1    2    0    0 +2.0722317475e+01 +1.1043832383e+02 -3.9948190538e+02 4.1498413287e+02 0.0000000000e+00 0.0000e+00 -1.0000e+00
       13  1    1    2    0    0 -2.0722317475e+01 -1.1043832383e+02 +2.7794194649e+02 2.9979620316e+02 0.0000000000e+00 0.0000e+00 1.0000e+00
<mgrwt>
<rscale>  0 0.70437133E+03</rscale>
<asrwt>0</asrwt>
<pdfrwt beam="1">  1        2 0.45633875E-01 0.70437133E+03</pdfrwt>
<pdfrwt beam="2">  1       -2 0.64332331E-01 0.70437133E+03</pdfrwt>
<totfact> 0.30990408E+02</totfact>
</mgrwt>
<rwgt>
<wgt id='morphing_basis_vector_1'> +2.6810761e-04 </wgt>
<wgt id='morphing_basis_vector_2'> +1.5744131e-04 </wgt>
<wgt id='morphing_basis_vector_3'> +2.2906826e-04 </wgt>
<wgt id='morphing_basis_vector_4'> +1.1554677e-04 </wgt>
<wgt id='morphing_basis_vector_5'> +1.7914781e-04 </wgt>
</rwgt>
</event>
<event>
 4      1 +5.9529000e-06 6.32862900e+02 7.81860800e-03 9.14355000e-02
        2 -1    0    0  501    0 +0.0000000000e+00 +0.0000000000e+00 +1.0516936333e+03 1.0516936333e+03 0.0000000000e+00 0.0000e+00 1.0000e+00
       -2 -1    0    0    0  501 -0.0000000000e+00 -0.0000000000e+00 -9.5207245650e+01 9.5207245650e+01 0.0000000000e+00 0.0000e+00 -1.0000e+00
      -13  1    1    2    0    0 -1.6890300224e+02 +2.5863392854e+02 +3.5388162587e+02 4.6973603043e+02 0.0000000000e+00 0.0000e+00 -1.0000e+00
       13  1    1    2    0    0 +1.6890300224e+02 -2.5863392854e+02 +6.0260476179e+02 6.7716484853e+02 0.0000000000e+00 0.0000e+00 1.0000e+00
<mgrwt>
<rscale>  0 0.63286287E+03</rscale>
<asrwt>0</asrwt>
<pdfrwt beam="1">  1        2 0.16179901E+00 0.63286287E+03</pdfrwt>
<pdfrwt beam="2">  1       -2 0.14647269E-01 0.63286287E+03</pdfrwt>
<totfact> 0.96452968E+02</totfact>
</mgrwt>
<rwgt>
<wgt id='morphing_basis_vector_1'> +1.8963025e-04 </wgt>
<wgt id='morphing_basis_vector_2'> +1.1597391e-04 </wgt>
<wgt id='morphing_basis_vector_3'> +1.5247318e-04 </wgt>
<wgt id='morphing_basis_vector_4'> +6.7286803e-05 </wgt>
<wgt id='morphing_basis_vector_5'> +1.0639445e-04 </wgt>
</rwgt>
</event>
<event>
 4      1 +5.9529000e-06 6.87994400e+02 7.81860800e-03 9.05608100e-02
        2 -1    0    0  501    0 +0.0000000000e+00 +0.0000000000e+00 +4.0084673556e+02 4.0084673556e+02 0.0000000000e+00 0.0000e+00 1.0000e+00
       -2 -1    0    0    0  501 -0.0000000000e+00 -0.0000000000e+00 -2.9521027116e+02 2.9521027116e+02 0.0000000000e+00 0.0000e+00 -1.0000e+00
      -13  1    1    2    0    0 +1.3337338259e+02 +3.0482268505e+02 +1.4118448834e+02 3.6143932860e+02 0.0000000000e+00 0.0000e+00 -1.0000e+00
       13  1    1    2    0    0 -1.3337338259e+02 -3.0482268505e+02 -3.5548023949e+01 3.3461767813e+02 0.0000000000e+00 0.0000e+00 1.0000e+00
<mgrwt>
<rscale>  0 0.68799440E+03</rscale>
<asrwt>0</asrwt>
<pdfrwt beam="1">  1        2 0.61668729E-01 0.68799440E+03</pdfrwt>
<pdfrwt beam="2">  1       -2 0.45416964E-01 0.68799440E+03</pdfrwt>
<totfact> 0.44230076E+02</totfact>
</mgrwt>
<rwgt>
<wgt id='morphing_basis_vector_1'> +2.6800852e-04 </wgt>
<wgt id='morphing_basis_vector_2'> +2.0816559e-04 </wgt>
<wgt id='morphing_basis_vector_3'> +2.1570562e-04 </wgt>
<wgt id='morphing_basis_vector_4'> +8.2488394e-05 </wgt>
<wgt id='morphing_basis_vector_5'> +1.5960466e-04 </wgt>
</rwgt>
</event>
<event>
 4      1 +5.9529000e-06 7.27688400e+02 7.81860800e-03 8.99823300e-02
        2 -1    0    0  501    0 +0.0000000000e+00 +0.0000000000e+00 +1.1671352074e+03 1.1671352074e+03 0.0000000000e+00 0.0000e+00 -1.0000e+00
       -2 -1    0    0    0  501 -0.0000000000e+00 -0.0000000000e+00 -1.1342524910e+02 1.1342524910e+02 0.0000000000e+00 0.0000e+00 1.0000e+00
      -13  1    1    2    0    0 +2.1168878856e+02 -2.7521891347e+02 +3.3549313014e+02 4.8281801324e+02 0.0000000000e+00 0.0000e+00 1.0000e+00
       13  1    1    2    0    0 -2.1168878856e+02 +2.7521891347e+02 +7.1821682814e+02 7.9774244325e+02 0.0000000000e+00 0.0000e+00 -1.0000e+00
<mgrwt>
<rscale>  0 0.72768840E+03</rscale>
<asrwt>0</asrwt>
<pdfrwt beam="1">  1        2 0.17955925E+00 0.72768840E+03</pdfrwt>
<pdfrwt beam="2">  1       -2 0.17450039E-01 0.72768840E+03</pdfrwt>
<totfact> 0.61775162E+02</totfact>
</mgrwt>
<rwgt>
<wgt id='morphing_basis_vector_1'> +3.0320137e-04 </wgt>
<wgt id='morphing_basis_vector_2'> +1.8733818e-04 </wgt>
<wgt id='morphing_basis_vector_3'> +2.6115732e-04 </wgt>
<wgt id='morphing_basis_vector_4'> +1.3068881e-04 </wgt>
<wgt id='morphing_basis_vector_5'> +2.0886908e-04 </wgt>
</rwgt>
</event>
<event>
 4      1 +5.9529000e-06 7.31267500e+02 7.81860800e-03 8.99320800e-02
        2 -1    0    0  501    0 +0.0000000000e+00 +0.0000000000e+00 +4.4468431628e+02 4.4468431628e+02 0.0000000000e+00 0.0000e+00 1.0000e+00
       -2 -1    0    0    0  501 -0.0000000000e+00 -0.0000000000e+00 -3.0063581646e+02 3.0063581646e+02 0.0000000000e+00 0.0000e+00 -1.0000e+00
      -13  1    1    2    0    0 -1.7430095940e+02 -1.8822909733e+02 -1.9351453194e+02 3.2133921579e+02 0.0000000000e+00 0.0000e+00 -1.0000e+00
       13  1    1    2    0    0 +1.7430095940e+02 +1.8822909733e+02 +3.3756303176e+02 4.2398091696e+02 0.0000000000e+00 0.0000e+00 1.0000e+00
<mgrwt>
<rscale>  0 0.73126748E+03</rscale>
<asrwt>0</asrwt>
<pdfrwt beam="1">  1        2 0.68412972E-01 0.73126748E+03</pdfrwt>
<pdfrwt beam="2">  1       -2 0.46251664E-01 0.73126748E+03</pdfrwt>
<totfact> 0.37936181E+02</totfact>
</mgrwt>
<rwgt>
<wgt id='morphing_basis_vector_1'> +3.0540219e-04 </wgt>
<wgt id='morphing_basis_vector_2'> +1.8151270e-04 </wgt>
<wgt id='morphing_basis_vector_3'> +2.6489371e-04 </wgt>
<wgt id='morphing_basis_vector_4'> +1.3703255e-04 </wgt>
<wgt id='morphing_basis_vector_5'> +2.1384560e-04 </wgt>
</rwgt>
</event>
<event>
 4      1 +5.9529000e-06 6.86872900e+02 7.81860800e-03 9.05777400e-02
        2 -1    0    0  501    0 +0.0000000000e+00 +0.0000000000e+00 +7.4778431099e+02 7.4778431099e+02 0.0000000000e+00 0.0000e+00 -1.0000e+00
       -2 -1    0    0    0  501 -0.0000000000e+00 -0.0000000000e+00 -1.5773075524e+02 1.5773075524e+02 0.0000000000e+00 0.0000e+00 1.0000e+00
      -13  1    1    2    0    0 +2.4560474868e+02 +1.9938672016e+01 -2.0349258856e+01 2.4725156329e+02 0.0000000000e+00 0.0000e+00 1.0000e+00
       13  1    1    2    0    0 -2.4560474868e+02 -1.9938672016e+01 +6.1040281461e+02 6.5826350293e+02 0.0000000000e+00 0.0000e+00 -1.0000e+00
<mgrwt>
<rscale>  0 0.68687287E+03</rscale>
<asrwt>0</asrwt>
<pdfrwt beam="1">  1        2 0.11504374E+00 0.68687287E+03</pdfrwt>
<pdfrwt beam="2">  1       -2 0.24266270E-01 0.68687287E+03</pdfrwt>
<totfact> 0.65975693E+02</totfact>
</mgrwt>
<rwgt>
<wgt id='morphing_basis_vector_1'> +2.4631830e-04 </wgt>
<wgt id='morphing_basis_vector_2'> +1.4463235e-04 </wgt>
<wgt id='morphing_basis_vector_3'> +2.0802071e-04 </wgt>
<wgt id='morphing_basis_vector_4'> +1.0246296e-04 </wgt>
<wgt id='morphing_basis_vector_5'> +1.5883605e-04 </wgt>
</rwgt>
</event>
<event>
 4      1 +5.9529000e-06 7.37090900e+02 7.81860800e-03 8.98509600e-02
        2 -1    0    0  501    0 +0.0000000000e+00 +0.0000000000e+00 +6.3904821190e+02 6.3904821190e+02 0.0000000000e+00 0.0000e+00 -1.0000e+00
       -2 -1    0    0    0  501 -0.0000000000e+00 -0.0000000000e+00 -2.1254379481e+02 2.1254379481e+02 0.0000000000e+00 0.0000e+00 1.0000e+00
      -13  1    1    2    0    0 +9.3806445466e+01 +8.2973820823e+01 -1.8720576758e+02 2.2523388637e+02 0.0000000000e+00 0.0000e+00 1.0000e+00
       13  1    1    2    0    0 -9.3806445466e+01 -8.2973820823e+01 +6.1371018467e+02 6.2635812034e+02 0.0000000000e+00 0.0000e+00 -1.0000e+00
<mgrwt>
<rscale>  0 0.73709085E+03</rscale>
<asrwt>0</asrwt>
<pdfrwt beam="1">  1        2 0.98315109E-01 0.73709085E+03</pdfrwt>
<pdfrwt beam="2">  1       -2 0.32699045E-01 0.73709085E+03</pdfrwt>
<totfact> 0.47393759E+02</totfact>
</mgrwt>
<rwgt>
<wgt id='morphing_basis_vector_1'> +3.1359308e-04 </wgt>
<wgt id='morphing_basis_vector_2'> +1.8586121e-04 </wgt>
<wgt id='morphing_basis_vector_3'> +2.7301559e-04 </wgt>
<wgt id='morphing_basis_vector_4'> +1.4249020e-04 </wgt>
<wgt id='morphing_basis_vector_5'> +2.2195884e-04 </wgt>
</rwgt>
</event>
<event>
 4      1 +5.9529000e-06 6.42406800e+02 7.81860800e-03 9.12775500e-02
        2 -1    0    0  501    0 +0.0000000000e+00 +0.0000000000e+00 +7.4651622401e+01 7.4651622401e+01 0.0000000000e+00 0.0000e+00 -1.0000e+00
       -2 -1    0    0    0  501 -0.0000000000e+00 -0.0000000000e+00 -1.3820411023e+03 1.3820411023e+03 0.0000000000e+00 0.0000e+00 1.0000e+00
      -13  1    1    2    0    0 -1.0990275856e+02 -2.6820327122e+02 -9.6756892424e+02 1.0100501147e+03 0.0000000000e+00 0.0000e+00 1.0000e+00
       13  1    1    2    0    0 +1.0990275856e+02 +2.6820327122e+02 -3.3982055569e+02 4.4664261004e+02 0.0000000000e+00 0.0000e+00 -1.0000e+00
<mgrwt>
<rscale>  0 0.64240676E+03</rscale>
<asrwt>0</asrwt>
<pdfrwt beam="1">  1        2 0.11484864E-01 0.64240676E+03</pdfrwt>
<pdfrwt beam="2">  1       -2 0.21262173E+00 0.64240676E+03</pdfrwt>
<totfact> 0.69192834E+01</totfact>
</mgrwt>
<rwgt>
<wgt id='morphing_basis_vector_1'> +1.9751228e-04 </wgt>
<wgt id='morphing_basis_vector_2'> +1.1669201e-04 </wgt>
<wgt id='morphing_basis_vector_3'> +1.6117988e-04 </wgt>
<wgt id='morphing_basis_vector_4'> +7.3868875e-05 </wgt>
<wgt id='morphing_basis_vector_5'> +1.1461282e-04 </wgt>
</rwgt>
</event>
<event>
 4      1 +5.9529000e-06 6.36952700e+02 7.81860800e-03 9.13674600e-02
        2 -1    0    0  501    0 +0.0000000000e+00 +0.0000000000e+00 +1.1420111278e+02 1.1420111278e+02 0.0000000000e+00 0.0000e+00 1.0000e+00
       -2 -1    0    0    0  501 -0.0000000000e+00 -0.0000000000e+00 -8.8814521110e+02 8.8814521110e+02 0.0000000000e+00 0.0000e+00 -1.0000e+00
      -13  1    1    2    0    0 +8.2359368264e+01 -1.4297055430e+02 -8.1564188229e+02 8.3216303996e+02 0.0000000000e+00 0.0000e+00 -1.0000e+00
       13  1    1    2    0    0 -8.2359368264e+01 +1.4297055430e+02 +4.1697783969e+01 1.7018328392e+02 0.0000000000e+00 0.0000e+00 1.0000e+00
<mgrwt>
<rscale>  0 0.63695266E+03</rscale>
<asrwt>0</asrwt>
<pdfrwt beam="1">  1        2 0.17569402E-01 0.63695266E+03</pdfrwt>
<pdfrwt beam="2">  1       -2 0.13663772E+00 0.63695266E+03</pdfrwt>
<totfact> 0.15772416E+02</totfact>
</mgrwt>
<rwgt>
<wgt id='morphing_basis_vector_1'> +1.9090258e-04 </wgt>
<wgt id='morphing_basis_vector_2'> +1.0987913e-04 </wgt>
<wgt id='morphing_basis_vector_3'> +1.5585625e-04 </wgt>
<wgt id='morphing_basis_vector_4'> +7.1882496e-05 </wgt>
<wgt id='morphing_basis_vector_5'> +1.0987808e-04 </wgt>
</rwgt>
</event>
<event>
 4      1 +5.9529000e-06 7.44798200e+02 7.81860800e-03 8.97448200e-02
        2 -1    0    0  501    0 +0.0000000000e+00 +0.0000000000e+00 +1.4958711684e+02 1.4958711684e+02 0.0000000000e+00 0.0000e+00 -1.0000e+00
       -2 -1    0    0    0  501 -0.0000000000e+00 -0.0000000000e+00 -9.2709239156e+02 9.2709239156e+02 0.0000000000e+00 0.0000e+00 1.0000e+00
      -13  1    1    2    0    0 +2.6968497443e+02 +1.8877377609e+02 -6.4045112243e+02 7.2009941271e+02 0.0000000000e+00 0.0000e+00 1.0000e+00
       13  1    1    2    0    0 -2.6968497443e+02 -1.8877377609e+02 -1.3705415229e+02 3.5658009568e+02 0.0000000000e+00 0.0000e+00 -1.0000e+00
<mgrwt>
<rscale>  0 0.74479817E+03</rscale>
<asrwt>0</asrwt>
<pdfrwt beam="1">  1        2 0.23013403E-01 0.74479817E+03</pdfrwt>
<pdfrwt beam="2">  1       -2 0.14262959E+00 0.74479817E+03</pdfrwt>
<totfact> 0.10079385E+02</totfact>
</mgrwt>
<rwgt>
<wgt id='morphing_basis_vector_1'> +3.2676324e-04 </wgt>
<wgt id='morphing_basis_vector_2'> +1.9808590e-04 </wgt>
<wgt id='morphing_basis_vector_3'> +2.8501047e-04 </wgt>
<wgt id='morphing_basis_vector_4'> +1.4757928e-04 </wgt>
<wgt id='morphing_basis_vector_5'> +2.3295064e-04 </wgt>
</rwgt>
</event>
<event>
 4      1 +5.9529000e-06 6.23079700e+02 7.81860800e-03 9.16004800e-02
        2 -1    0    0  501    0 +0.0000000000e+00 +0.0000000000e+00 +1.9211358855e+03 1.9211358855e+03 0.0000000000e+00 0.0000e+00 -1.0000e+00
       -2 -1    0    0    0  501 -0.0000000000e+00 -0.0000000000e+00 -5.0520671179e+01 5.0520671179e+01 0.0000000000e+00 0.0000e+00 1.0000e+00
      -13  1    1    2    0    0 +2.1262845432e+02 +1.6623303672e+02 +4.4291660090e+02 5.1867079871e+02 0.0000000000e+00 0.0000e+00 1.0000e+00
       13  1    1    2    0    0 -2.1262845432e+02 -1.6623303672e+02 +1.4276986134e+03 1.4529857580e+03 0.0000000000e+00 0.0000e+00 -1.0000e+00
<mgrwt>
<rscale>  0 0.62307969E+03</rscale>
<asrwt>0</asrwt>
<pdfrwt beam="1">  1        2 0.29555931E+00 0.62307969E+03</pdfrwt>
<pdfrwt beam="2">  1       -2 0.77724124E-02 0.62307969E+03</pdfrwt>
<totfact> 0.85790696E+02</totfact>
</mgrwt>
<rwgt>
<wgt id='morphing_basis_vector_1'> +1.7817681e-04 </wgt>
<wgt id='morphing_basis_vector_2'> +1.0384522e-04 </wgt>
<wgt id='morphing_basis_vector_3'> +1.4344740e-04 </wgt>
<wgt id='morphing_basis_vector_4'> +6.4082794e-05 </wgt>
<wgt id='morphing_basis_vector_5'> +9.8429061e-05 </wgt>
</rwgt>
</event>
<event>
 4      1 +5.9529000e-06 6.63288100e+02 7.81860800e-03 9.09417700e-02
        2 -1    0    0  501    0 +0.0000000000e+00 +0.0000000000e+00 +3.4841535436e+02 3.4841535436e+02 0.0000000000e+00 0.0000e+00 1.0000e+00
       -2 -1    0    0    0  501 -0.0000000000e+00 -0.0000000000e+00 -3.1568003829e+02 3.1568003829e+02 0.0000000000e+00 0.0000e+00 -1.0000e+00
      -13  1    1    2    0    0 -3.2179461375e+02 -6.7443664675e+01 +5.9864188137e+01 3.3419177483e+02 0.0000000000e+00 0.0000e+00 -1.0000e+00
       13  1    1    2    0    0 +3.2179461375e+02 +6.7443664675e+01 -2.7128872070e+01 3.2990361781e+02 0.0000000000e+00 0.0000e+00 1.0000e+00
<mgrwt>
<rscale>  0 0.66328809E+03</rscale>
<asrwt>0</asrwt>
<pdfrwt beam="1">  1        2 0.53602362E-01 0.66328809E+03</pdfrwt>
<pdfrwt beam="2">  1       -2 0.48566160E-01 0.66328809E+03</pdfrwt>
<totfact> 0.45562539E+02</totfact>
</mgrwt>
<rwgt>
<wgt id='morphing_basis_vector_1'> +2.3054836e-04 </wgt>
<wgt id='morphing_basis_vector_2'> +1.6376680e-04 </wgt>
<wgt id='morphing_basis_vector_3'> +1.8472236e-04 </wgt>
<wgt id='morphing_basis_vector_4'> +7.5728957e-05 </wgt>
<wgt id='morphing_basis_vector_5'> +1.3393425e-04 </wgt>
</rwgt>
</event>
<event>
 4      1 +5.9529000e-06 6.50774300e+02 7.81860800e-03 9.11414100e-02
        2 -1    0    0  501    0 +0.0000000000e+00 +0.0000000000e+00 +3.4893448228e+02 3.4893448228e+02 0.0000000000e+00 0.0000e+00 -1.0000e+00
       -2 -1    0    0    0  501 -0.0000000000e+00 -0.0000000000e+00 -3.0342883670e+02 3.0342883670e+02 0.0000000000e+00 0.0000e+00 1.0000e+00
      -13  1    1    2    0    0 +2.2606854172e+02 +1.8862470067e+02 -1.1611529450e+02 3.1649490497e+02 0.0000000000e+00 0.0000e+00 1.0000e+00
       13  1    1    2    0    0 -2.2606854172e+02 -1.8862470067e+02 +1.6162094008e+02 3.3586841401e+02 0.0000000000e+00 0.0000e+00 -1.0000e+00
<mgrwt>
<rscale>  0 0.65077426E+03</rscale>
<asrwt>0</asrwt>
<pdfrwt beam="1">  1        2 0.53682228E-01 0.65077426E+03</pdfrwt>
<pdfrwt beam="2">  1       -2 0.46681360E-01 0.65077426E+03</pdfrwt>
<totfact> 0.49115165E+02</totfact>
</mgrwt>
<rwgt>
<wgt id='morphing_basis_vector_1'> +2.0627016e-04 </wgt>
<wgt id='morphing_basis_vector_2'> +1.2226733e-04 </wgt>
<wgt id='morphing_basis_vector_3'> +1.6935913e-04 </wgt>
<wgt id='morphing_basis_vector_4'> +7.8525964e-05 </wgt>
<wgt id='morphing_basis_vector_5'> +1.2216562e-04 </wgt>
</rwgt>
</event>
<event>
 4      1 +5.9529000e-06 6.23425600e+02 7.81860800e-03 9.15946000e-02
        2 -1    0    0  501    0 +0.0000000000e+00 +0.0000000000e+00 +1.4580085924e+02 1.4580085924e+02 0.0000000000e+00 0.0000e+00 -1.0000e+00
       -2 -1    0    0    0  501 -0.0000000000e+00 -0.0000000000e+00 -6.6642168402e+02 6.6642168402e+02 0.0000000000e+00 0.0000e+00 1.0000e+00
      -13  1    1    2    0    0 -1.4493961870e+02 +2.7019900365e+02 -3.3343038721e+02 4.5297993086e+02 0.0000000000e+00 0.0000e+00 1.0000e+00
       13  1    1    2    0    0 +1.4493961870e+02 -2.7019900365e+02 -1.8719043757e+02 3.5924261240e+02 0.0000000000e+00 0.0000e+00 -1.0000e+00
<mgrwt>
<rscale>  0 0.62342555E+03</rscale>
<asrwt>0</asrwt>
<pdfrwt beam="1">  1        2 0.22430902E-01 0.62342555E+03</pdfrwt>
<pdfrwt beam="2">  1       -2 0.10252641E+00 0.62342555E+03</pdfrwt>
<totfact> 0.24650068E+02</totfact>
</mgrwt>
<rwgt>
<wgt id='morphing_basis_vector_1'> +1.8085201e-04 </wgt>
<wgt id='morphing_basis_vector_2'> +1.1132131e-04 </wgt>
<wgt id='morphing_basis_vector_3'> +1.4399629e-04 </wgt>
<wgt id='morphing_basis_vector_4'> +6.2272663e-05 </wgt>
<wgt id='morphing_basis_vector_5'> +9.8696609e-05 </wgt>
</rwgt>
</event>
<event>
 4      1 +5.9529000e-06 7.15804300e+02 7.81860800e-03 9.01514200e-02
        2 -1    0    0  501    0 +0.0000000000e+00 +0.0000000000e+00 +9.5642230396e+02 9.5642230396e+02 0.0000000000e+00 0.0000e+00 -1.0000e+00
       -2 -1    0    0    0  501 -0.0000000000e+00 -0.0000000000e+00 -1.3393033351e+02 1.3393033351e+02 0.0000000000e+00 0.0000e+00 1.0000e+00
      -13  1    1    2    0    0 -2.0748222595e+02 +2.0784523626e+02 +9.9646494786e+01 3.1012568459e+02 0.0000000000e+00 0.0000e+00 1.0000e+00
       13  1    1    2    0    0 +2.0748222595e+02 -2.0784523626e+02 +7.2284547566e+02 7.8022695288e+02 0.0000000000e+00 0.0000e+00 -1.0000e+00
<mgrwt>
<rscale>  0 0.71580433E+03</rscale>
<asrwt>0</asrwt>
<pdfrwt beam="1">  1        2 0.14714189E+00 0.71580433E+03</pdfrwt>
<pdfrwt beam="2">  1       -2 0.20604667E-01 0.71580433E+03</pdfrwt>
<totfact> 0.62906536E+02</totfact>
</mgrwt>
<rwgt>
<wgt id='morphing_basis_vector_1'> +2.8416005e-04 </wgt>
<wgt id='morphing_basis_vector_2'> +1.6940069e-04 </wgt>
<wgt id='morphing_basis_vector_3'> +2.4406436e-04 </wgt>
<wgt id='morphing_basis_vector_4'> +1.2363200e-04 </wgt>
<wgt id='morphing_basis_vector_5'> +1.9334361e-04 </wgt>
</rwgt>
</event>
<event>
 4      1 +5.9529000e-06 6.28800200e+02 7.81860800e-03 9.15036300e-02
        2 -1    0    0  501    0 +0.0000000000e+00 +0.0000000000e+00 +6.1329563975e+02 6.1329563975e+02 0.0000000000e+00 0.0000e+00 1.0000e+00
       -2 -1    0    0    0  501 -0.0000000000e+00 -0.0000000000e+00 -1.6117420655e+02 1.6117420655e+02 0.0000000000e+00 0.0000e+00 -1.0000e+00
      -13  1    1    2    0    0 -1.3896550092e+02 -8.6819005260e+01 -1.0442561067e+02 1.9430300637e+02 0.0000000000e+00 0.0000e+00 -1.0000e+00
       13  1    1    2    0    0 +1.3896550092e+02 +8.6819005260e+01 +5.5654704387e+02 5.8016683993e+02 0.0000000000e+00 0.0000e+00 1.0000e+00
<mgrwt>
<rscale>  0 0.62880025E+03</rscale>
<asrwt>0</asrwt>
<pdfrwt beam="1">  1        2 0.94353174E-01 0.62880025E+03</pdfrwt>
<pdfrwt beam="2">  1       -2 0.24796032E-01 0.62880025E+03</pdfrwt>
<totfact> 0.80927240E+02</totfact>
</mgrwt>
<rwgt>
<wgt id='morphing_basis_vector_1'> +1.8292029e-04 </wgt>
<wgt id='morphing_basis_vector_2'> +1.0500426e-04 </wgt>
<wgt id='morphing_basis_vector_3'> +1.4842290e-04 </wgt>
<wgt id='morphing_basis_vector_4'> +6.7576708e-05 </wgt>
<wgt id='morphing_basis_vector_5'> +1.0304464e-04 </wgt>
</rwgt>
</event>
<event>
 4      1 +5.9529000e-06 6.51526000e+02 7.81860800e-03 9.11292900e-02
        2 -1    0    0  501    0 +0.0000000000e+00 +0.0000000000e+00 +1.0008874223e+03 1.0008874223e+03 0.0000000000e+00 0.0000e+00 1.0000e+00
       -2 -1    0    0    0  501 -0.0000000000e+00 -0.0000000000e+00 -1.0602744994e+02 1.0602744994e+02 0.0000000000e+00 0.0000e+00 -1.0000e+00
      -13  1    1    2    0    0 -2.3160686086e+02 +3.6035752306e+01 +6.3070324740e+01 2.4273067236e+02 0.0000000000e+00 0.0000e+00 -1.0000e+00
       13  1    1    2    0    0 +2.3160686086e+02 -3.6035752306e+01 +8.3178964763e+02 8.6418419990e+02 0.0000000000e+00 0.0000e+00 1.0000e+00
<mgrwt>
<rscale>  0 0.65152603E+03</rscale>
<asrwt>0</asrwt>
<pdfrwt beam="1">  1        2 0.15398267E+00 0.65152603E+03</pdfrwt>
<pdfrwt beam="2">  1       -2 0.16311916E-01 0.65152603E+03</pdfrwt>
<totfact> 0.86962477E+02</totfact>
</mgrwt>
<rwgt>
<wgt id='morphing_basis_vector_1'> +2.0607390e-04 </wgt>
<wgt id='morphing_basis_vector_2'> +1.1969259e-04 </wgt>
<wgt id='morphing_basis_vector_3'> +1.6990944e-04 </wgt>
<wgt id='morphing_basis_vector_4'> +7.9877885e-05 </wgt>
<wgt id='morphing_basis_vector_5'> +1.2287312e-04 </wgt>
</rwgt>
</event>
<event>
 4      1 +5.9529000e-06 7.00011200e+02 7.81860800e-03 9.03814900e-02
        2 -1    0    0  501    0 +0.0000000000e+00 +0.0000000000e+00 +1.8268520392e+02 1.8268520392e+02 0.0000000000e+00 0.0000e+00 1.0000e+00
       -2 -1    0    0    0  501 -0.0000000000e+00 -0.0000000000e+00 -6.7057386038e+02 6.7057386038e+02 0.0000000000e+00 0.0000e+00 -1.0000e+00
      -13  1    1    2    0    0 -2.9477148711e+02 +1.4214567232e+02 -3.9524933163e+02 5.1314486836e+02 0.0000000000e+00 0.0000e+00 -1.0000e+00
       13  1    1    2    0    0 +2.9477148711e+02 -1.4214567232e+02 -9.2639324834e+01 3.4011419594e+02 0.0000000000e+00 0.0000e+00 1.0000e+00
<mgrwt>
<rscale>  0 0.70001121E+03</rscale>
<asrwt>0</asrwt>
<pdfrwt beam="1">  1        2 0.28105416E-01 0.70001121E+03</pdfrwt>
<pdfrwt beam="2">  1       -2 0.10316521E+00 0.70001121E+03</pdfrwt>
<totfact> 0.18572308E+02</totfact>
</mgrwt>
<rwgt>
<wgt id='morphing_basis_vector_1'> +2.6468976e-04 </wgt>
<wgt id='morphing_basis_vector_2'> +1.6079201e-04 </wgt>
<wgt id='morphing_basis_vector_3'> +2.2442830e-04 </wgt>
<wgt id='morphing_basis_vector_4'> +1.0991884e-04 </wgt>
<wgt id='morphing_basis_vector_5'> +1.7386502e-04 </wgt>
</rwgt>
</event>
<event>
 4      1 +5.9529000e-06 7.07051300e+02 7.81860800e-03 9.02781600e-02
        2 -1    0    0  501    0 +0.0000000000e+00 +0.0000000000e+00 +9.5664252231e+01 9.5664252231e+01 0.0000000000e+00 0.0000e+00 1.0000e+00
       -2 -1    0    0    0  501 -0.0000000000e+00 -0.0000000000e+00 -1.3064482006e+03 1.3064482006e+03 0.0000000000e+00 0.0000e+00 -1.0000e+00
      -13  1    1    2    0    0 -3.2334330149e+02 -2.4595266794e+01 -8.8460381204e+02 9.4216756580e+02 0.0000000000e+00 0.0000e+00 -1.0000e+00
       13  1    1    2    0    0 +3.2334330149e+02 +2.4595266794e+01 -3.2618013630e+02 4.5994488700e+02 0.0000000000e+00 0.0000e+00 1.0000e+00
<mgrwt>
<rscale>  0 0.70705131E+03</rscale>
<asrwt>0</asrwt>
<pdfrwt beam="1">  1        2 0.14717579E-01 0.70705131E+03</pdfrwt>
<pdfrwt beam="2">  1       -2 0.20099201E+00 0.70705131E+03</pdfrwt>
<totfact> 0.61176210E+01</totfact>
</mgrwt>
<rwgt>
<wgt id='morphing_basis_vector_1'> +2.7351265e-04 </wgt>
<wgt id='morphing_basis_vector_2'> +1.6544942e-04 </wgt>
<wgt id='morphing_basis_vector_3'> +2.3314305e-04 </wgt>
<wgt id='morphing_basis_vector_4'> +1.1558433e-04 </wgt>
<wgt id='morphing_basis_vector_5'> +1.8235691e-04 </wgt>
</rwgt>
</event>
<event>
 4      1 +5.9529000e-06 6.66728400e+02 7.81860800e-03 9.08877000e-02
        2 -1    0    0  501    0 +0.0000000000e+00 +0.0000000000e+00 +1.8178685287e+03 1.8178685287e+03 0.0000000000e+00 0.0000e+00 -1.0000e+00
       -2 -1    0    0    0  501 -0.0000000000e+00 -0.0000000000e+00 -6.1132968712e+01 6.1132968712e+01 0.0000000000e+00 0.0000e+00 1.0000e+00
      -13  1    1    2    0    0 +8.5657992157e+01 -3.0688772289e+02 +1.1547039602e+03 1.1978558351e+03 0.0000000000e+00 0.0000e+00 1.0000e+00
       13  1    1    2    0    0 -8.5657992157e+01 +3.0688772289e+02 +6.0203159976e+02 6.8114566224e+02 0.0000000000e+00 0.0000e+00 -1.0000e+00
<mgrwt>
<rscale>  0 0.66672843E+03</rscale>
<asrwt>0</asrwt>
<pdfrwt beam="1">  1        2 0.27967204E+00 0.66672843E+03</pdfrwt>
<pdfrwt beam="2">  1       -2 0.94050735E-02 0.66672843E+03</pdfrwt>
<totfact> 0.72430472E+02</totfact>
</mgrwt>
<rwgt>
<wgt id='morphing_basis_vector_1'> +2.4348186e-04 </wgt>
<wgt id='morphing_basis_vector_2'> +1.9420378e-04 </wgt>
<wgt id='morphing_basis_vector_3'> +1.9075107e-04 </wgt>
<wgt id='morphing_basis_vector_4'> +6.8989145e-05 </wgt>
<wgt id='morphing_basis_vector_5'> +1.3718871e-04 </wgt>
</rwgt>
</event>
<event>
 4      1 +5.9529000e-06 7.16280700e+02 7.81860800e-03 9.01445800e-02
        2 -1    0    0  501    0 +0.0000000000e+00 +0.0000000000e+00 +1.7282592477e+03 1.7282592477e+03 0.0000000000e+00 0.0000e+00 1.0000e+00
       -2 -1    0    0    0  501 -0.0000000000e+00 -0.0000000000e+00 -7.4216008895e+01 7.4216008895e+01 0.0000000000e+00 0.0000e+00 -1.0000e+00
      -13  1    1    2    0    0 -1.1120179733e+02 -2.4396969402e+02 +2.2952039876e+02 3.5294003000e+02 0.0000000000e+00 0.0000e+00 -1.0000e+00
       13  1    1    2    0    0 +1.1120179733e+02 +2.4396969402e+02 +1.4245228400e+03 1.4495352266e+03 0.0000000000e+00 0.0000e+00 1.0000e+00
<mgrwt>
<rscale>  0 0.71628068E+03</rscale>
<asrwt>0</asrwt>
<pdfrwt beam="1">  1        2 0.26588601E+00 0.71628068E+03</pdfrwt>
<pdfrwt beam="2">  1       -2 0.11417849E-01 0.71628068E+03</pdfrwt>
<totfact> 0.59559942E+02</totfact>
</mgrwt>
<rwgt>
<wgt id='morphing_basis_vector_1'> +2.8445303e-04 </wgt>
<wgt id='morphing_basis_vector_2'> +1.6870636e-04 </wgt>
<wgt id='morphing_basis_vector_3'> +2.4455184e-04 </wgt>
<wgt id='morphing_basis_vector_4'> +1.2440406e-04 </wgt>
<wgt id='morphing_basis_vector_5'> +1.9396430e-04 </wgt>
</rwgt>
</event>
<event>
 4      1 +5.9529000e-06 7.29912500e+02 7.81860800e-03 8.99510700e-02
        2 -1    0    0  501    0 +0.0000000000e+00 +0.0000000000e+00 +3.7565996323e+02 3.7565996323e+02 0.0000000000e+00 0.0000e+00 -1.0000e+00
       -2 -1    0    0    0  501 -0.0000000000e+00 -0.0000000000e+00 -3.5455748944e+02 3.5455748944e+02 0.0000000000e+00 0.0000e+00 1.0000e+00
      -13  1    1    2    0    0 +3.5854023479e+02 +6.7996915630e+01 +6.2630783575e+00 3.6498480331e+02 0.0000000000e+00 0.0000e+00 1.0000e+00
       13  1    1    2    0    0 -3.5854023479e+02 -6.7996915630e+01 +1.4839395427e+01 3.6523264936e+02 0.0000000000e+00 0.0000e+00 -1.0000e+00
<mgrwt>
<rscale>  0 0.72991247E+03</rscale>
<asrwt>0</asrwt>
<pdfrwt beam="1">  1        2 0.57793840E-01 0.72991247E+03</pdfrwt>
<pdfrwt beam="2">  1       -2 0.54547306E-01 0.72991247E+03</pdfrwt>
<totfact> 0.33229280E+02</totfact>
</mgrwt>
<rwgt>
<wgt id='morphing_basis_vector_1'> +3.1324855e-04 </wgt>
<wgt id='morphing_basis_vector_2'> +2.1043867e-04 </wgt>
<wgt id='morphing_basis_vector_3'> +2.6721497e-04 </wgt>
<wgt id='morphing_basis_vector_4'> +1.2488183e-04 </wgt>
<wgt id='morphing_basis_vector_5'> +2.1164022e-04 </wgt>
</rwgt>
</event>
<event>
 4      1 +5.9529000e-06 6.55940400e+02 7.81860800e-03 9.10584300e-02
        2 -1    0    0  501    0 +0.0000000000e+00 +0.0000000000e+00 +1.2030484102e+03 1.2030484102e+03 0.0000000000e+00 0.0000e+00 1.0000e+00
       -2 -1    0    0    0  501 -0.0000000000e+00 -0.0000000000e+00 -8.9409920357e+01 8.9409920357e+01 0.0000000000e+00 0.0000e+00 -1.0000e+00
      -13  1    1    2    0    0 -3.0835272172e+02 -1.0985860565e+02 +5.9691792700e+02 6.8077993933e+02 0.0000000000e+00 0.0000e+00 1.0000e+00
       13  1    1    2    0    0 +3.0835272172e+02 +1.0985860565e+02 +5.1672056287e+02 6.1167839125e+02 0.0000000000e+00 0.0000e+00 -1.0000e+00
<mgrwt>
<rscale>  0 0.65594043E+03</rscale>
<asrwt>0</asrwt>
<pdfrwt beam="1">  1        2 0.18508436E+00 0.65594043E+03</pdfrwt>
<pdfrwt beam="2">  1       -2 0.13755373E-01 0.65594043E+03</pdfrwt>
<totfact> 0.86868346E+02</totfact>
</mgrwt>
<rwgt>
<wgt id='morphing_basis_vector_1'> +2.1958984e-04 </wgt>
<wgt id='morphing_basis_vector_2'> +1.4980050e-04 </wgt>
<wgt id='morphing_basis_vector_3'> +1.7623677e-04 </wgt>
<wgt id='morphing_basis_vector_4'> +7.4231298e-05 </wgt>
<wgt id='morphing_basis_vector_5'> +1.2689317e-04 </wgt>
</rwgt>
</event>
<event>
 4      1 +5.9529000e-06 6.56241100e+02 7.81860800e-03 9.10536300e-02
        2 -1    0    0  501    0 +0.0000000000e+00 +0.0000000000e+00 +4.3703894214e+02 4.3703894214e+02 0.0000000000e+00 0.0000e+00 -1.0000e+00
       -2 -1    0    0    0  501 -0.0000000000e+00 -0.0000000000e+00 -2.4634665373e+02 2.4634665373e+02 0.0000000000e+00 0.0000e+00 1.0000e+00
      -13  1    1    2    0    0 +3.0580916784e+02 -1.1628631759e+02 +6.9388681387e+01 3.3444961339e+02 0.0000000000e+00 0.0000e+00 1.0000e+00
       13  1    1    2    0    0 -3.0580916784e+02 +1.1628631759e+02 +1.2130360702e+02 3.4893598248e+02 0.0000000000e+00 0.0000e+00 -1.0000e+00
<mgrwt>
<rscale>  0 0.65624106E+03</rscale>
<asrwt>0</asrwt>
<pdfrwt beam="1">  1        2 0.67236761E-01 0.65624106E+03</pdfrwt>
<pdfrwt beam="2">  1       -2 0.37899485E-01 0.65624106E+03</pdfrwt>
<totfact> 0.56356560E+02</totfact>
</mgrwt>
<rwgt>
<wgt id='morphing_basis_vector_1'> +2.1635216e-04 </wgt>
<wgt id='morphing_basis_vector_2'> +1.3898957e-04 </wgt>
<wgt id='morphing_basis_vector_3'> +1.7578172e-04 </wgt>
<wgt id='morphing_basis_vector_4'> +7.7745462e-05 </wgt>
<wgt id='morphing_basis_vector_5'> +1.2722701e-04 </wgt>
</rwgt>
</event>
<event>
 4      1 +5.9529000e-06 6.78347100e+02 7.81860800e-03 9.07075500e-02
        2 -1    0    0  501    0 +0.0000000000e+00 +0.0000000000e+00 +3.2693466177e+02 3.2693466177e+02 0.0000000000e+00 0.0000e+00 -1.0000e+00
       -2 -1    0    0    0  501 -0.0000000000e+00 -0.0000000000e+00 -3.5187064643e+02 3.5187064643e+02 0.0000000000e+00 0.0000e+00 1.0000e+00
      -13  1    1    2    0    0 +3.3301082481e+02 -6.2263881240e+01 +3.8436441971e+00 3.3880344441e+02 0.0000000000e+00 0.0000e+00 1.0000e+00
       13  1    1    2    0    0 -3.3301082481e+02 +6.2263881240e+01 -2.8779628850e+01 3.4000186379e+02 0.0000000000e+00 0.0000e+00 -1.0000e+00
<mgrwt>
<rscale>  0 0.67834714E+03</rscale>
<asrwt>0</asrwt>
<pdfrwt beam="1">  1        2 0.50297641E-01 0.67834714E+03</pdfrwt>
<pdfrwt beam="2">  1       -2 0.54133945E-01 0.67834714E+03</pdfrwt>
<totfact> 0.39518146E+02</totfact>
</mgrwt>
<rwgt>
<wgt id='morphing_basis_vector_1'> +2.4548718e-04 </wgt>
<wgt id='morphing_basis_vector_2'> +1.6729452e-04 </wgt>
<wgt id='morphing_basis_vector_3'> +2.0095461e-04 </wgt>
<wgt id='morphing_basis_vector_4'> +8.7262420e-05 </wgt>
<wgt id='morphing_basis_vector_5'> +1.4936534e-04 </wgt>
</rwgt>
</event>
<event>
 4      1 +5.9529000e-06 6.73780500e+02 7.81860800e-03 9.07779000e-02
        2 -1    0    0  501    0 +0.0000000000e+00 +0.0000000000e+00 +8.7779468715e+02 8.7779468715e+02 0.0000000000e+00 0.0000e+00 -1.0000e+00
       -2 -1    0    0    0  501 -0.0000000000e+00 -0.0000000000e+00 -1.2929564076e+02 1.2929564076e+02 0.0000000000e+00 0.0000e+00 1.0000e+00
      -13  1    1    2    0    0 -2.3652099983e+00 -3.0801257447e+02 +1.7030461450e+02 3.5196733082e+02 0.0000000000e+00 0.0000e+00 1.0000e+00
       13  1    1    2    0    0 +2.3652099983e+00 +3.0801257447e+02 +5.7819443189e+02 6.5512299709e+02 0.0000000000e+00 0.0000e+00 -1.0000e+00
<mgrwt>
<rscale>  0 0.67378046E+03</rscale>
<asrwt>0</asrwt>
<pdfrwt beam="1">  1        2 0.13504533E+00 0.67378046E+03</pdfrwt>
<pdfrwt beam="2">  1       -2 0.19891638E-01 0.67378046E+03</pdfrwt>
<totfact> 0.75055665E+02</totfact>
</mgrwt>
<rwgt>
<wgt id='morphing_basis_vector_1'> +2.3201033e-04 </wgt>
<wgt id='morphing_basis_vector_2'> +1.3886661e-04 </wgt>
<wgt id='morphing_basis_vector_3'> +1.9354615e-04 </wgt>
<wgt id='morphing_basis_vector_4'> +9.2371177e-05 </wgt>
<wgt id='morphing_basis_vector_5'> +1.4472840e-04 </wgt>
</rwgt>
</event>
<event>
 4      1 +5.9529000e-06 6.32474100e+02 7.81860800e-03 9.14420000e-02
        2 -1    0    0  501    0 +0.0000000000e+00 +0.0000000000e+00 +1.1461716612e+03 1.1461716612e+03 0.0000000000e+00 0.0000e+00 -1.0000e+00
       -2 -1    0    0    0  501 -0.0000000000e+00 -0.0000000000e+00 -8.7252084249e+01 8.7252084249e+01 0.0000000000e+00 0.0000e+00 1.0000e+00
      -13  1    1    2    0    0 +2.9623927507e+02 +9.7560228214e+01 +6.3135731235e+02 7.0419298639e+02 0.0000000000e+00 0.0000e+00 1.0000e+00
       13  1    1    2    0    0 -2.9623927507e+02 -9.7560228214e+01 +4.2756226462e+02 5.2923075908e+02 0.0000000000e+00 0.0000e+00 -1.0000e+00
<mgrwt>
<rscale>  0 0.63247408E+03</rscale>
<asrwt>0</asrwt>
<pdfrwt beam="1">  1        2 0.17633409E+00 0.63247408E+03</pdfrwt>
<pdfrwt beam="2">  1       -2 0.13423398E-01 0.63247408E+03</pdfrwt>
<totfact> 0.97547720E+02</totfact>
</mgrwt>
<rwgt>
<wgt id='morphing_basis_vector_1'> +1.9787035e-04 </wgt>
<wgt id='morphing_basis_vector_2'> +1.4242599e-04 </wgt>
<wgt id='morphing_basis_vector_3'> +1.5329287e-04 </wgt>
<wgt id='morphing_basis_vector_4'> +5.9579886e-05 </wgt>
<wgt id='morphing_basis_vector_5'> +1.0601712e-04 </wgt>
</rwgt>
</event>
<event>
 4      1 +5.9529000e-06 6.38960700e+02 7.81860800e-03 9.13342500e-02
        2 -1    0    0  501    0 +0.0000000000e+00 +0.0000000000e+00 +3.7292590560e+02 3.7292590560e+02 0.0000000000e+00 0.0000e+00 -1.0000e+00
       -2 -1    0    0    0  501 -0.0000000000e+00 -0.0000000000e+00 -2.7369431988e+02 2.7369431988e+02 0.0000000000e+00 0.0000e+00 1.0000e+00
      -13  1    1    2    0    0 -1.8401326114e+02 +2.0413122725e+02 -1.1523961261e+02 2.9801108457e+02 0.0000000000e+00 0.0000e+00 1.0000e+00
       13  1    1    2    0    0 +1.8401326114e+02 -2.0413122725e+02 +2.1447119833e+02 3.4860914091e+02 0.0000000000e+00 0.0000e+00 -1.0000e+00
<mgrwt>
<rscale>  0 0.63896073E+03</rscale>
<asrwt>0</asrwt>
<pdfrwt beam="1">  1        2 0.57373217E-01 0.63896073E+03</pdfrwt>
<pdfrwt beam="2">  1       -2 0.42106818E-01 0.63896073E+03</pdfrwt>
<totfact> 0.55451931E+02</totfact>
</mgrwt>
<rwgt>
<wgt id='morphing_basis_vector_1'> +1.9362935e-04 </wgt>
<wgt id='morphing_basis_vector_2'> +1.1333047e-04 </wgt>
<wgt id='morphing_basis_vector_3'> +1.5784524e-04 </wgt>
<wgt id='morphing_basis_vector_4'> +7.2333883e-05 </wgt>
<wgt id='morphing_basis_vector_5'> +1.1160288e-04 </wgt>
</rwgt>
</event>
<event>
 4      1 +5.9529000e-06 6.31739000e+02 7.81860800e-03 9.14542900e-02
        2 -1    0    0  501    0 +0.0000000000e+00 +0.0000000000e+00 +4.4317902828e+02 4.4317902828e+02 0.0000000000e+00 0.0000e+00 -1.0000e+00
       -2 -1    0    0    0  501 -0.0000000000e+00 -0.0000000000e+00 -2.2513148989e+02 2.2513148989e+02 0.0000000000e+00 0.0000e+00 1.0000e+00
      -13  1    1    2    0    0 +2.1111068433e+02 +3.2912956125e+00 -1.3951288710e+02 2.5306599798e+02 0.0000000000e+00 0.0000e+00 1.0000e+00
       13  1    1    2    0    0 -2.1111068433e+02 -3.2912956125e+00 +3.5756042550e+02 4.1524452019e+02 0.0000000000e+00 0.0000e+00 -1.0000e+00
<mgrwt>
<rscale>  0 0.63173904E+03</rscale>
<asrwt>0</asrwt>
<pdfrwt beam="1">  1        2 0.68181389E-01 0.63173904E+03</pdfrwt>
<pdfrwt beam="2">  1       -2 0.34635614E-01 0.63173904E+03</pdfrwt>
<totfact> 0.65389374E+02</totfact>
</mgrwt>
<rwgt>
<wgt id='morphing_basis_vector_1'> +1.8587433e-04 </wgt>
<wgt id='morphing_basis_vector_2'> +1.0707539e-04 </wgt>
<wgt id='morphing_basis_vector_3'> +1.5108419e-04 </wgt>
<wgt id='morphing_basis_vector_4'> +6.9012823e-05 </wgt>
<wgt id='morphing_basis_vector_5'> +1.0547196e-04 </wgt>
</rwgt>
</event>
<event>
 4      1 +5.9529000e-06 6.53738500e+02 7.81860800e-03 9.10937000e-02
        2 -1    0    0  501    0 +0.0000000000e+00 +0.0000000000e+00 +1.6428493536e+03 1.6428493536e+03 0.0000000000e+00 0.0000e+00 1.0000e+00
       -2 -1    0    0    0  501 -0.0000000000e+00 -0.0000000000e+00 -6.5035481284e+01 6.5035481284e+01 0.0000000000e+00 0.0000e+00 -1.0000e+00
      -13  1    1    2    0    0 -3.1801409785e+02 +2.2830126405e+00 +9.8623758035e+02 1.0362445384e+03 0.0000000000e+00 0.0000e+00 -1.0000e+00
       13  1    1    2    0    0 +3.1801409785e+02 -2.2830126405e+00 +5.9157629199e+02 6.7164029645e+02 0.0000000000e+00 0.0000e+00 1.0000e+00
<mgrwt>
<rscale>  0 0.65373847E+03</rscale>
<asrwt>0</asrwt>
<pdfrwt beam="1">  1        2 0.25274602E+00 0.65373847E+03</pdfrwt>
<pdfrwt beam="2">  1       -2 0.10005460E-01 0.65373847E+03</pdfrwt>
<totfact> 0.81953949E+02</totfact>
</mgrwt>
<rwgt>
<wgt id='morphing_basis_vector_1'> +2.2417106e-04 </wgt>
<wgt id='morphing_basis_vector_2'> +1.6981642e-04 </wgt>
<wgt id='morphing_basis_vector_3'> +1.7539294e-04 </wgt>
<wgt id='morphing_basis_vector_4'> +6.6511524e-05 </wgt>
<wgt id='morphing_basis_vector_5'> +1.2473158e-04 </wgt>
</rwgt>
</event>
<event>
 4      1 +5.9529000e-06 6.39317200e+02 7.81860800e-03 9.13283600e-02
        2 -1    0    0  501    0 +0.0000000000e+00 +0.0000000000e+00 +2.9795790951e+02 2.9795790951e+02 0.0000000000e+00 0.0000e+00 -1.0000e+00
       -2 -1    0    0    0  501 -0.0000000000e+00 -0.0000000000e+00 -3.4293980896e+02 3.4293980896e+02 0.0000000000e+00 0.0000e+00 1.0000e+00
      -13  1    1    2    0    0 -1.3284123349e+02 -6.7903201548e+01 -3.0589816285e+02 3.4034001253e+02 0.0000000000e+00 0.0000e+00 1.0000e+00
       13  1    1    2    0    0 +1.3284123349e+02 +6.7903201548e+01 +2.6091626340e+02 3.0055770594e+02 0.0000000000e+00 0.0000e+00 -1.0000e+00
<mgrwt>
<rscale>  0 0.63931723E+03</rscale>
<asrwt>0</asrwt>
<pdfrwt beam="1">  1        2 0.45839678E-01 0.63931723E+03</pdfrwt>
<pdfrwt beam="2">  1       -2 0.52759971E-01 0.63931723E+03</pdfrwt>
<totfact> 0.46202166E+02</totfact>
</mgrwt>
<rwgt>
<wgt id='morphing_basis_vector_1'> +1.9325266e-04 </wgt>
<wgt id='morphing_basis_vector_2'> +1.1127538e-04 </wgt>
<wgt id='morphing_basis_vector_3'> +1.5806323e-04 </wgt>
<wgt id='morphing_basis_vector_4'> +7.3182541e-05 </wgt>
<wgt id='morphing_basis_vector_5'> +1.1191815e-04 </wgt>
</rwgt>
</event>
<event>
 4      1 +5.9529000e-06 7.45072200e+02 7.81860800e-03 8.97410800e-02
        2 -1    0    0  501    0 +0.0000000000e+00 +0.0000000000e+00 +1.5662249914e+03 1.5662249914e+03 0.0000000000e+00 0.0000e+00 -1.0000e+00
       -2 -1    0    0    0  501 -0.0000000000e+00 -0.0000000000e+00 -8.8609960550e+01 8.8609960550e+01 0.0000000000e+00 0.0000e+00 1.0000e+00
      -13  1    1    2    0    0 +3.4984483269e+02 +1.1684897829e+02 +6.2258867020e+02 7.2364476295e+02 0.0000000000e+00 0.0000e+00 1.0000e+00
       13  1    1    2    0    0 -3.4984483269e+02 -1.1684897829e+02 +8.5502636067e+02 9.3119018902e+02 0.0000000000e+00 0.0000e+00 -1.0000e+00
<mgrwt>
<rscale>  0 0.74507217E+03</rscale>
<asrwt>0</asrwt>
<pdfrwt beam="1">  1        2 0.24095767E+00 0.74507217E+03</pdfrwt>
<pdfrwt beam="2">  1       -2 0.13632303E-01 0.74507217E+03</pdfrwt>
<totfact> 0.54969548E+02</totfact>
</mgrwt>
<rwgt>
<wgt id='morphing_basis_vector_1'> +3.3229055e-04 </wgt>
<wgt id='morphing_basis_vector_2'> +2.1405364e-04 </wgt>
<wgt id='morphing_basis_vector_3'> +2.8781475e-04 </wgt>
<wgt id='morphing_basis_vector_4'> +1.4193311e-04 </wgt>
<wgt id='morphing_basis_vector_5'> +2.3314647e-04 </wgt>
</rwgt>
</event>
<event>
 4      1 +5.9529000e-06 6.46140300e+02 7.81860800e-03 9.12165400e-02
        2 -1    0    0  501    0 +0.0000000000e+00 +0.0000000000e+00 +6.1682535393e+02 6.1682535393e+02 0.0000000000e+00 0.0000e+00 1.0000e+00
       -2 -1    0    0    0  501 -0.0000000000e+00 -0.0000000000e+00 -1.6921209699e+02 1.6921209699e+02 0.0000000000e+00 0.0000e+00 -1.0000e+00
      -13  1    1    2    0    0 -4.8844163327e+01 +8.8956605901e+01 -1.4931823908e+02 1.8054076145e+02 0.0000000000e+00 0.0000e+00 -1.0000e+00
       13  1    1    2    0    0 +4.8844163327e+01 -8.8956605901e+01 +5.9693149601e+02 6.0549668947e+02 0.0000000000e+00 0.0000e+00 1.0000e+00
<mgrwt>
<rscale>  0 0.64614027E+03</rscale>
<asrwt>0</asrwt>
<pdfrwt beam="1">  1        2 0.94896207E-01 0.64614027E+03</pdfrwt>
<pdfrwt beam="2">  1       -2 0.26032631E-01 0.64614027E+03</pdfrwt>
<totfact> 0.73922316E+02</totfact>
</mgrwt>
<rwgt>
<wgt id='morphing_basis_vector_1'> +2.0019071e-04 </wgt>
<wgt id='morphing_basis_vector_2'> +1.1546781e-04 </wgt>
<wgt id='morphing_basis_vector_3'> +1.6457227e-04 </wgt>
<wgt id='morphing_basis_vector_4'> +7.7005966e-05 </wgt>
<wgt id='morphing_basis_vector_5'> +1.1795358e-04 </wgt>
</rwgt>
</event>
<event>
 4      1 +5.9529000e-06 7.36646300e+02 7.81860800e-03 8.98571300e-02
        2 -1    0    0  501    0 +0.0000000000e+00 +0.0000000000e+00 +2.1158107795e+03 2.1158107795e+03 0.0000000000e+00 0.0000e+00 1.0000e+00
       -2 -1    0    0    0  501 -0.0000000000e+00 -0.0000000000e+00 -6.4118187880e+01 6.4118187880e+01 0.0000000000e+00 0.0000e+00 -1.0000e+00
      -13  1    1    2    0    0 -1.3416925316e+02 -3.3990172025e+02 +8.8935455385e+02 9.6150199707e+02 0.0000000000e+00 0.0000e+00 -1.0000e+00
       13  1    1    2    0    0 +1.3416925316e+02 +3.3990172025e+02 +1.1623380378e+03 1.2184269703e+03 0.0000000000e+00 0.0000e+00 1.0000e+00
<mgrwt>
<rscale>  0 0.73664633E+03</rscale>
<asrwt>0</asrwt>
<pdfrwt beam="1">  1        2 0.32550930E+00 0.73664633E+03</pdfrwt>
<pdfrwt beam="2">  1       -2 0.98643382E-02 0.73664633E+03</pdfrwt>
<totfact> 0.45830421E+02</totfact>
</mgrwt>
<rwgt>
<wgt id='morphing_basis_vector_1'> +3.1978824e-04 </wgt>
<wgt id='morphing_basis_vector_2'> +2.0651759e-04 </wgt>
<wgt id='morphing_basis_vector_3'> +2.7544550e-04 </wgt>
<wgt id='morphing_basis_vector_4'> +1.3431520e-04 </wgt>
<wgt id='morphing_basis_vector_5'> +2.2107468e-04 </wgt>
</rwgt>
</event>
<event>
 4      1 +5.9529000e-06 6.37823300e+02 7.81860800e-03 9.13530400e-02
        2 -1    0    0  501    0 +0.0000000000e+00 +0.0000000000e+00 +1.2693731124e+03 1.2693731124e+03 0.0000000000e+00 0.0000e+00 -1.0000e+00
       -2 -1    0    0    0  501 -0.0000000000e+00 -0.0000000000e+00 -8.0121943112e+01 8.0121943112e+01 0.0000000000e+00 0.0000e+00 1.0000e+00
      -13  1    1    2    0    0 -2.2824219374e+02 +1.7035051341e+02 +8.9822993534e+02 9.4230080821e+02 0.0000000000e+00 0.0000e+00 1.0000e+00
       13  1    1    2    0    0 +2.2824219374e+02 -1.7035051341e+02 +2.9102123395e+02 4.0719424730e+02 0.0000000000e+00 0.0000e+00 -1.0000e+00
<mgrwt>
<rscale>  0 0.63782330E+03</rscale>
<asrwt>0</asrwt>
<pdfrwt beam="1">  1        2 0.19528816E+00 0.63782330E+03</pdfrwt>
<pdfrwt beam="2">  1       -2 0.12326454E-01 0.63782330E+03</pdfrwt>
<totfact> 0.94945267E+02</totfact>
</mgrwt>
<rwgt>
<wgt id='morphing_basis_vector_1'> +2.2096519e-04 </wgt>
<wgt id='morphing_basis_vector_2'> +2.0075110e-04 </wgt>
<wgt id='morphing_basis_vector_3'> +1.6118937e-04 </wgt>
<wgt id='morphing_basis_vector_4'> +4.6481228e-05 </wgt>
<wgt id='morphing_basis_vector_5'> +1.1039769e-04 </wgt>
</rwgt>
</event>
<event>
 4      1 +5.9529000e-06 7.16421100e+02 7.81860800e-03 9.01425600e-02
        2 -1    0    0  501    0 +0.0000000000e+00 +0.0000000000e+00 +1.9851799127e+03 1.9851799127e+03 0.0000000000e+00 0.0000e+00 -1.0000e+00
       -2 -1    0    0    0  501 -0.0000000000e+00 -0.0000000000e+00 -6.4636365642e+01 6.4636365642e+01 0.0000000000e+00 0.0000e+00 1.0000e+00
      -13  1    1    2    0    0 +2.6025724179e+02 +2.2297423081e+02 +1.2584877661e+03 1.3043169849e+03 0.0000000000e+00 0.0000e+00 1.0000e+00
       13  1    1    2    0    0 -2.6025724179e+02 -2.2297423081e+02 +6.6205578091e+02 7.4549929345e+02 0.0000000000e+00 0.0000e+00 -1.0000e+00
<mgrwt>
<rscale>  0 0.71642115E+03</rscale>
<asrwt>0</asrwt>
<pdfrwt beam="1">  1        2 0.30541225E+00 0.71642115E+03</pdfrwt>
<pdfrwt beam="2">  1       -2 0.99440578E-02 0.71642115E+03</pdfrwt>
<totfact> 0.53540908E+02</totfact>
</mgrwt>
<rwgt>
<wgt id='morphing_basis_vector_1'> +3.1103899e-04 </wgt>
<wgt id='morphing_basis_vector_2'> +2.5009627e-04 </wgt>
<wgt id='morphing_basis_vector_3'> +2.5514357e-04 </wgt>
<wgt id='morphing_basis_vector_4'> +9.5741600e-05 </wgt>
<wgt id='morphing_basis_vector_5'> +1.9329897e-04 </wgt>
</rwgt>
</event>
<event>
 4      1 +5.9529000e-06 6.38537400e+02 7.81860800e-03 9.13412400e-02
        2 -1    0    0  501    0 +0.0000000000e+00 +0.0000000000e+00 +5.6849639004e+02 5.6849639004e+02 0.0000000000e+00 0.0000e+00 1.0000e+00
       -2 -1    0    0    0  501 -0.0000000000e+00 -0.0000000000e+00 -1.7930194210e+02 1.7930194210e+02 0.0000000000e+00 0.0000e+00 -1.0000e+00
      -13  1    1    2    0    0 +1.1540494162e+02 +2.5673126551e+02 +1.8138843223e+01 2.8206073969e+02 0.0000000000e+00 0.0000e+00 -1.0000e+00
       13  1    1    2    0    0 -1.1540494162e+02 -2.5673126551e+02 +3.7105560471e+02 4.6573759245e+02 0.0000000000e+00 0.0000e+00 1.0000e+00
<mgrwt>
<rscale>  0 0.63853741E+03</rscale>
<asrwt>0</asrwt>
<pdfrwt beam="1">  1        2 0.87460983E-01 0.63853741E+03</pdfrwt>
<pdfrwt beam="2">  1       -2 0.27584914E-01 0.63853741E+03</pdfrwt>
<totfact> 0.73595179E+02</totfact>
</mgrwt>
<rwgt>
<wgt id='morphing_basis_vector_1'> +1.9336917e-04 </wgt>
<wgt id='morphing_basis_vector_2'> +1.1357997e-04 </wgt>
<wgt id='morphing_basis_vector_3'> +1.5747340e-04 </wgt>
<wgt id='morphing_basis_vector_4'> +7.1957696e-05 </wgt>
<wgt id='morphing_basis_vector_5'> +1.1123524e-04 </wgt>
</rwgt>
</event>
<event>
 4      1 +5.9529000e-06 6.23336600e+02 7.81860800e-03 9.15961100e-02
        2 -1    0    0  501    0 +0.0000000000e+00 +0.0000000000e+00 +2.9044050561e+02 2.9044050561e+02 0.0000000000e+00 0.0000e+00 -1.0000e+00
       -2 -1    0    0    0  501 -0.0000000000e+00 -0.0000000000e+00 -3.3444761773e+02 3.3444761773e+02 0.0000000000e+00 0.0000e+00 1.0000e+00
      -13  1    1    2    0    0 -2.9804304127e+02 +6.5070781062e+01 +4.1977507081e+01 3.0793826021e+02 0.0000000000e+00 0.0000e+00 1.0000e+00
       13  1    1    2    0    0 +2.9804304127e+02 -6.5070781062e+01 -8.5984619209e+01 3.1694986313e+02 0.0000000000e+00 0.0000e+00 -1.0000e+00
<mgrwt>
<rscale>  0 0.62333662E+03</rscale>
<asrwt>0</asrwt>
<pdfrwt beam="1">  1        2 0.44683155E-01 0.62333662E+03</pdfrwt>
<pdfrwt beam="2">  1       -2 0.51453480E-01 0.62333662E+03</pdfrwt>
<totfact> 0.49977545E+02</totfact>
</mgrwt>
<rwgt>
<wgt id='morphing_basis_vector_1'> +1.9011360e-04 </wgt>
<wgt id='morphing_basis_vector_2'> +1.4021282e-04 </wgt>
<wgt id='morphing_basis_vector_3'> +1.4489606e-04 </wgt>
<wgt id='morphing_basis_vector_4'> +5.4347631e-05 </wgt>
<wgt id='morphing_basis_vector_5'> +9.8597978e-05 </wgt>
</rwgt>
</event>
<event>
 4      1 +5.9529000e-06 7.33131400e+02 7.81860800e-03 8.99060300e-02
        2 -1    0    0  501    0 +0.0000000000e+00 +0.0000000000e+00 +1.3654007317e+03 1.3654007317e+03 0.0000000000e+00 0.0000e+00 1.0000e+00
       -2 -1    0    0    0  501 -0.0000000000e+00 -0.0000000000e+00 -9.8410983437e+01 9.8410983437e+01 0.0000000000e+00 0.0000e+00 -1.0000e+00
      -13  1    1    2    0    0 +2.6483821545e+02 +6.0424906586e+01 +1.4205778383e+02 3.0654667450e+02 0.0000000000e+00 0.0000e+00 -1.0000e+00
       13  1    1    2    0    0 -2.6483821545e+02 -6.0424906586e+01 +1.1249319645e+03 1.1572650407e+03 0.0000000000e+00 0.0000e+00 1.0000e+00
<mgrwt>
<rscale>  0 0.73313144E+03</rscale>
<asrwt>0</asrwt>
<pdfrwt beam="1">  1        2 0.21006164E+00 0.73313144E+03</pdfrwt>
<pdfrwt beam="2">  1       -2 0.15140152E-01 0.73313144E+03</pdfrwt>
<totfact> 0.60003410E+02</totfact>
</mgrwt>
<rwgt>
<wgt id='morphing_basis_vector_1'> +3.0823252e-04 </wgt>
<wgt id='morphing_basis_vector_2'> +1.8359446e-04 </wgt>
<wgt id='morphing_basis_vector_3'> +2.6757350e-04 </wgt>
<wgt id='morphing_basis_vector_4'> +1.3850599e-04 </wgt>
<wgt id='morphing_basis_vector_5'> +2.1641065e-04 </wgt>
</rwgt>
</event>
<event>
 4      1 +5.9529000e-06 6.22035100e+02 7.81860800e-03 9.16182900e-02
        2 -1    0    0  501    0 +0.0000000000e+00 +0.0000000000e+00 +9.0775432694e+02 9.0775432694e+02 0.0000000000e+00 0.0000e+00 -1.0000e+00
       -2 -1    0    0    0  501 -0.0000000000e+00 -0.0000000000e+00 -1.0656177629e+02 1.0656177629e+02 0.0000000000e+00 0.0000e+00 1.0000e+00
      -13  1    1    2    0    0 -2.3298940055e+02 +1.2685926065e+02 +1.3587643570e+02 2.9805995799e+02 0.0000000000e+00 0.0000e+00 1.0000e+00
       13  1    1    2    0    0 +2.3298940055e+02 -1.2685926065e+02 +6.6531611495e+02 7.1625614524e+02 0.0000000000e+00 0.0000e+00 -1.0000e+00
<mgrwt>
<rscale>  0 0.62203509E+03</rscale>
<asrwt>0</asrwt>
<pdfrwt beam="1">  1        2 0.13965451E+00 0.62203509E+03</pdfrwt>
<pdfrwt beam="2">  1       -2 0.16394120E-01 0.62203509E+03</pdfrwt>
<totfact> 0.98787287E+02</totfact>
</mgrwt>
<rwgt>
<wgt id='morphing_basis_vector_1'> +1.7711019e-04 </wgt>
<wgt id='morphing_basis_vector_2'> +1.0297825e-04 </wgt>
<wgt id='morphing_basis_vector_3'> +1.4252908e-04 </wgt>
<wgt id='morphing_basis_vector_4'> +6.3637533e-05 </wgt>
<wgt id='morphing_basis_vector_5'> +9.7602965e-05 </wgt>
</rwgt>
</event>
<event>
 4      1 +5.9529000e-06 6.79840400e+02 7.81860800e-03 9.06846700e-02
        2 -1    0    0  501    0 +0.0000000000e+00 +0.0000000000e+00 +8.7020943448e+01 8.7020943448e+01 0.0000000000e+00 0.0000e+00 -1.0000e+00
       -2 -1    0    0    0  501 -0.0000000000e+00 -0.0000000000e+00 -1.3277924099e+03 1.3277924099e+03 0.0000000000e+00 0.0000e+00 1.0000e+00
      -13  1    1    2    0    0 -9.0184508787e+01 +2.4045437590e+02 -1.0838407585e+03 1.1138502333e+03 0.0000000000e+00 0.0000e+00 1.0000e+00
       13  1    1    2    0    0 +9.0184508787e+01 -2.4045437590e+02 -1.5693070797e+02 3.0096312003e+02 0.0000000000e+00 0.0000e+00 -1.0000e+00
<mgrwt>
<rscale>  0 0.67984042E+03</rscale>
<asrwt>0</asrwt>
<pdfrwt beam="1">  1        2 0.13387838E-01 0.67984042E+03</pdfrwt>
<pdfrwt beam="2">  1       -2 0.20427574E+00 0.67984042E+03</pdfrwt>
<totfact> 0.65291652E+01</totfact>
</mgrwt>
<rwgt>
<wgt id='morphing_basis_vector_1'> +2.3795374e-04 </wgt>
<wgt id='morphing_basis_vector_2'> +1.3968189e-04 </wgt>
<wgt id='morphing_basis_vector_3'> +1.9998534e-04 </wgt>
<wgt id='morphing_basis_vector_4'> +9.7538944e-05 </wgt>
<wgt id='morphing_basis_vector_5'> +1.5115439e-04 </wgt>
</rwgt>
</event>
<event>
 4      1 +5.9529000e-06 6.82491700e+02 7.81860800e-03 9.06442000e-02
        2 -1    0    0  501    0 +0.0000000000e+00 +0.0000000000e+00 +1.9826484723e+02 1.9826484723e+02 0.0000000000e+00 0.0000e+00 -1.0000e+00
       -2 -1    0    0    0  501 -0.0000000000e+00 -0.0000000000e+00 -5.8733932788e+02 5.8733932788e+02 0.0000000000e+00 0.0000e+00 1.0000e+00
      -13  1    1    2    0    0 -2.6861675661e+02 +6.7619051300e+01 -4.2395070346e+02 5.0642027704e+02 0.0000000000e+00 0.0000e+00 1.0000e+00
       13  1    1    2    0    0 +2.6861675661e+02 -6.7619051300e+01 +3.4876222809e+01 2.7918389808e+02 0.0000000000e+00 0.0000e+00 -1.0000e+00
<mgrwt>
<rscale>  0 0.68249174E+03</rscale>
<asrwt>0</asrwt>
<pdfrwt beam="1">  1        2 0.30502284E-01 0.68249174E+03</pdfrwt>
<pdfrwt beam="2">  1       -2 0.90359896E-01 0.68249174E+03</pdfrwt>
<totfact> 0.23164703E+02</totfact>
</mgrwt>
<rwgt>
<wgt id='morphing_basis_vector_1'> +2.4135249e-04 </wgt>
<wgt id='morphing_basis_vector_2'> +1.4237189e-04 </wgt>
<wgt id='morphing_basis_vector_3'> +2.0306742e-04 </wgt>
<wgt id='morphing_basis_vector_4'> +9.9100204e-05 </wgt>
<wgt id='morphing_basis_vector_5'> +1.5401281e-04 </wgt>
</rwgt>
</event>
<event>
 4      1 +5.9529000e-06 6.71539900e+02 7.81860800e-03 9.08126300e-02
        2 -1    0    0  501    0 +0.0000000000e+00 +0.0000000000e+00 +1.1521815404e+03 1.1521815404e+03 0.0000000000e+00 0.0000e+00 -1.0000e+00
       -2 -1    0    0    0  501 -0.0000000000e+00 -0.0000000000e+00 -9.7850437510e+01 9.7850437510e+01 0.0000000000e+00 0.0000e+00 1.0000e+00
      -13  1    1    2    0    0 +3.0089354403e+02 -8.7371482071e+01 +3.0247205964e+02 4.3549976760e+02 0.0000000000e+00 0.0000e+00 1.0000e+00
       13  1    1    2    0    0 -3.0089354403e+02 +8.7371482071e+01 +7.5185904329e+02 8.1453221035e+02 0.0000000000e+00 0.0000e+00 -1.0000e+00
<mgrwt>
<rscale>  0 0.67153993E+03</rscale>
<asrwt>0</asrwt>
<pdfrwt beam="1">  1        2 0.17725869E+00 0.67153993E+03</pdfrwt>
<pdfrwt beam="2">  1       -2 0.15053914E-01 0.67153993E+03</pdfrwt>
<totfact> 0.80353827E+02</totfact>
</mgrwt>
<rwgt>
<wgt id='morphing_basis_vector_1'> +2.2976611e-04 </wgt>
<wgt id='morphing_basis_vector_2'> +1.3831649e-04 </wgt>
<wgt id='morphing_basis_vector_3'> +1.9117598e-04 </wgt>
<wgt id='morphing_basis_vector_4'> +9.0588942e-05 </wgt>
<wgt id='morphing_basis_vector_5'> +1.4240466e-04 </wgt>
</rwgt>
</event>
<event>
 4      1 +5.9529000e-06 6.96615300e+02 7.81860800e-03 9.04317800e-02
        2 -1    0    0  501    0 +0.0000000000e+00 +0.0000000000e+00 +2.0075189757e+02 2.0075189757e+02 0.0000000000e+00 0.0000e+00 1.0000e+00
       -2 -1    0    0    0  501 -0.0000000000e+00 -0.0000000000e+00 -6.0431908748e+02 6.0431908748e+02 0.0000000000e+00 0.0000e+00 -1.0000e+00
      -13  1    1    2    0    0 +9.5112327295e+01 -2.8555185916e+02 -4.0438222128e+02 5.0409443555e+02 0.0000000000e+00 0.0000e+00 -1.0000e+00
       13  1    1    2    0    0 -9.5112327295e+01 +2.8555185916e+02 +8.1503136512e-01 3.0097654950e+02 0.0000000000e+00 0.0000e+00 1.0000e+00
<mgrwt>
<rscale>  0 0.69661526E+03</rscale>
<asrwt>0</asrwt>
<pdfrwt beam="1">  1        2 0.30884907E-01 0.69661526E+03</pdfrwt>
<pdfrwt beam="2">  1       -2 0.92972167E-01 0.69661526E+03</pdfrwt>
<totfact> 0.21349718E+02</totfact>
</mgrwt>
<rwgt>
<wgt id='morphing_basis_vector_1'> +2.5919538e-04 </wgt>
<wgt id='morphing_basis_vector_2'> +1.5451314e-04 </wgt>
<wgt id='morphing_basis_vector_3'> +2.1986288e-04 </wgt>
<wgt id='morphing_basis_vector_4'> +1.0863836e-04 </wgt>
<wgt id='morphing_basis_vector_5'> +1.6990605e-04 </wgt>
</rwgt>
</event>
<event>
 4      1 +5.9529000e-06 6.74381100e+02 7.81860800e-03 9.07686200e-02
        2 -1    0    0  501    0 +0.0000000000e+00 +0.0000000000e+00 +3.0056927605e+02 3.0056927605e+02 0.0000000000e+00 0.0000e+00 -1.0000e+00
       -2 -1    0    0    0  501 -0.0000000000e+00 -0.0000000000e+00 -3.7827371838e+02 3.7827371838e+02 0.0000000000e+00 0.0000e+00 1.0000e+00
      -13  1    1    2    0    0 +2.2524173444e+02 +2.5010752572e+02 -5.9230778380e+01 3.4175414915e+02 0.0000000000e+00 0.0000e+00 1.0000e+00
       13  1    1    2    0    0 -2.2524173444e+02 -2.5010752572e+02 -1.8473663943e+01 3.3708884528e+02 0.0000000000e+00 0.0000e+00 -1.0000e+00
<mgrwt>
<rscale>  0 0.67438107E+03</rscale>
<asrwt>0</asrwt>
<pdfrwt beam="1">  1        2 0.46241427E-01 0.67438107E+03</pdfrwt>
<pdfrwt beam="2">  1       -2 0.58195957E-01 0.67438107E+03</pdfrwt>
<totfact> 0.37551931E+02</totfact>
</mgrwt>
<rwgt>
<wgt id='morphing_basis_vector_1'> +2.3757073e-04 </wgt>
<wgt id='morphing_basis_vector_2'> +1.5431531e-04 </wgt>
<wgt id='morphing_basis_vector_3'> +1.9553700e-04 </wgt>
<wgt id='morphing_basis_vector_4'> +8.7962704e-05 </wgt>
<wgt id='morphing_basis_vector_5'> +1.4525920e-04 </wgt>
</rwgt>
</event>
<event>
 4      1 +5.9529000e-06 6.85643100e+02 7.81860800e-03 9.05963400e-02
        2 -1    0    0  501    0 +0.0000000000e+00 +0.0000000000e+00 +1.6102484189e+03 1.6102484189e+03 0.0000000000e+00 0.0000e+00 -1.0000e+00
       -2 -1    0    0    0  501 -0.0000000000e+00 -0.0000000000e+00 -7.2986640286e+01 7.2986640286e+01 0.0000000000e+00 0.0000e+00 1.0000e+00
      -13  1    1    2    0    0 +2.2364250458e+02 +2.5867756512e+02 +8.2859303913e+02 8.9637965006e+02 0.0000000000e+00 0.0000e+00 1.0000e+00
       13  1    1    2    0    0 -2.2364250458e+02 -2.5867756512e+02 +7.0866873949e+02 7.8685540913e+02 0.0000000000e+00 0.0000e+00 -1.0000e+00
<mgrwt>
<rscale>  0 0.68564312E+03</rscale>
<asrwt>0</asrwt>
<pdfrwt beam="1">  1        2 0.24773050E+00 0.68564312E+03</pdfrwt>
<pdfrwt beam="2">  1       -2 0.11228715E-01 0.68564312E+03</pdfrwt>
<totfact> 0.71081238E+02</totfact>
</mgrwt>
<rwgt>
<wgt id='morphing_basis_vector_1'> +2.5544563e-04 </wgt>
<wgt id='morphing_basis_vector_2'> +1.7648185e-04 </wgt>
<wgt id='morphing_basis_vector_3'> +2.0985273e-04 </wgt>
<wgt id='morphing_basis_vector_4'> +9.0814977e-05 </wgt>
<wgt id='morphing_basis_vector_5'> +1.5722964e-04 </wgt>
</rwgt>
</event>
<event>
 4      1 +5.9529000e-06 6.68390700e+02 7.81860800e-03 9.08616900e-02
        2 -1    0    0  501    0 +0.0000000000e+00 +0.0000000000e+00 +5.9593238535e+02 5.9593238535e+02 0.0000000000e+00 0.0000e+00 1.0000e+00
       -2 -1    0    0    0  501 -0.0000000000e+00 -0.0000000000e+00 -1.8741479126e+02 1.8741479126e+02 0.0000000000e+00 0.0000e+00 -1.0000e+00
      -13  1    1    2    0    0 -4.5630251596e+01 +1.5237067588e+02 +5.4872733986e+02 5.7131483110e+02 0.0000000000e+00 0.0000e+00 1.0000e+00
       13  1    1    2    0    0 +4.5630251596e+01 -1.5237067588e+02 -1.4020974577e+02 2.1203234550e+02 0.0000000000e+00 0.0000e+00 -1.0000e+00
<mgrwt>
<rscale>  0 0.66839073E+03</rscale>
<asrwt>0</asrwt>
<pdfrwt beam="1">  1        2 0.91681904E-01 0.66839073E+03</pdfrwt>
<pdfrwt beam="2">  1       -2 0.28833045E-01 0.66839073E+03</pdfrwt>
<totfact> 0.64443252E+02</totfact>
</mgrwt>
<rwgt>
<wgt id='morphing_basis_vector_1'> +3.0253259e-04 </wgt>
<wgt id='morphing_basis_vector_2'> +3.7195088e-04 </wgt>
<wgt id='morphing_basis_vector_3'> +2.0718093e-04 </wgt>
<wgt id='morphing_basis_vector_4'> +1.4430935e-05 </wgt>
<wgt id='morphing_basis_vector_5'> +1.3784439e-04 </wgt>
</rwgt>
</event>
<event>
 4      1 +5.9529000e-06 6.54188200e+02 7.81860800e-03 9.10864900e-02
        2 -1    0    0  501    0 +0.0000000000e+00 +0.0000000000e+00 +3.9739918745e+02 3.9739918745e+02 0.0000000000e+00 0.0000e+00 -1.0000e+00
       -2 -1    0    0    0  501 -0.0000000000e+00 -0.0000000000e+00 -2.6922686273e+02 2.6922686273e+02 0.0000000000e+00 0.0000e+00 1.0000e+00
      -13  1    1    2    0    0 +1.7639915724e+02 +5.6067037223e+01 -2.1072696515e+02 2.8047464980e+02 0.0000000000e+00 0.0000e+00 1.0000e+00
       13  1    1    2    0    0 -1.7639915724e+02 -5.6067037223e+01 +3.3889928987e+02 3.8615140038e+02 0.0000000000e+00 0.0000e+00 -1.0000e+00
<mgrwt>
<rscale>  0 0.65418816E+03</rscale>
<asrwt>0</asrwt>
<pdfrwt beam="1">  1        2 0.61138336E-01 0.65418816E+03</pdfrwt>
<pdfrwt beam="2">  1       -2 0.41419517E-01 0.65418816E+03</pdfrwt>
<totfact> 0.53212968E+02</totfact>
</mgrwt>
<rwgt>
<wgt id='morphing_basis_vector_1'> +2.0872517e-04 </wgt>
<wgt id='morphing_basis_vector_2'> +1.2087397e-04 </wgt>
<wgt id='morphing_basis_vector_3'> +1.7253583e-04 </wgt>
<wgt id='morphing_basis_vector_4'> +8.1610410e-05 </wgt>
<wgt id='morphing_basis_vector_5'> +1.2536103e-04 </wgt>
</rwgt>
</event>
<event>
 4      1 +5.9529000e-06 7.37319500e+02 7.81860800e-03 8.98477900e-02
        2 -1    0    0  501    0 +0.0000000000e+00 +0.0000000000e+00 +8.9325681670e+02 8.9325681670e+02 0.0000000000e+00 0.0000e+00 1.0000e+00
       -2 -1    0    0    0  501 -0.0000000000e+00 -0.0000000000e+00 -1.5215109213e+02 1.5215109213e+02 0.0000000000e+00 0.0000e+00 -1.0000e+00
      -13  1    1    2    0    0 +1.4149724165e+02 -1.3425348700e+02 -7.2997298500e+01 2.0826443228e+02 0.0000000000e+00 0.0000e+00 -1.0000e+00
       13  1    1    2    0    0 -1.4149724165e+02 +1.3425348700e+02 +8.1410302307e+02 8.3714347655e+02 0.0000000000e+00 0.0000e+00 1.0000e+00
<mgrwt>
<rscale>  0 0.73731947E+03</rscale>
<asrwt>0</asrwt>
<pdfrwt beam="1">  1        2 0.13742412E+00 0.73731947E+03</pdfrwt>
<pdfrwt beam="2">  1       -2 0.23407861E-01 0.73731947E+03</pdfrwt>
<totfact> 0.55670357E+02</totfact>
</mgrwt>
<rwgt>
<wgt id='morphing_basis_vector_1'> +3.1400085e-04 </wgt>
<wgt id='morphing_basis_vector_2'> +1.8628793e-04 </wgt>
<wgt id='morphing_basis_vector_3'> +2.7337529e-04 </wgt>
<wgt id='morphing_basis_vector_4'> +1.4261363e-04 </wgt>
<wgt id='morphing_basis_vector_5'> +2.2227865e-04 </wgt>
</rwgt>
</event>
<event>
 4      1 +5.9529000e-06 6.35195200e+02 7.81860800e-03 9.13966300e-02
        2 -1    0    0  501    0 +0.0000000000e+00 +0.0000000000e+00 +4.1561358754e+02 4.1561358754e+02 0.0000000000e+00 0.0000e+00 -1.0000e+00
       -2 -1    0    0    0  501 -0.0000000000e+00 -0.0000000000e+00 -2.4269716959e+02 2.4269716959e+02 0.0000000000e+00 0.0000e+00 1.0000e+00
      -13  1    1    2    0    0 -1.4388549531e+02 -1.4401789542e+02 -1.6618338946e+02 2.6279480378e+02 0.0000000000e+00 0.0000e+00 1.0000e+00
       13  1    1    2    0    0 +1.4388549531e+02 +1.4401789542e+02 +3.3909980742e+02 3.9551595335e+02 0.0000000000e+00 0.0000e+00 -1.0000e+00
<mgrwt>
<rscale>  0 0.63519522E+03</rscale>
<asrwt>0</asrwt>
<pdfrwt beam="1">  1        2 0.63940552E-01 0.63519522E+03</pdfrwt>
<pdfrwt beam="2">  1       -2 0.37338026E-01 0.63519522E+03</pdfrwt>
<totfact> 0.61324914E+02</totfact>
</mgrwt>
<rwgt>
<wgt id='morphing_basis_vector_1'> +1.8923860e-04 </wgt>
<wgt id='morphing_basis_vector_2'> +1.0906051e-04 </wgt>
<wgt id='morphing_basis_vector_3'> +1.5424135e-04 </wgt>
<wgt id='morphing_basis_vector_4'> +7.0867679e-05 </wgt>
<wgt id='morphing_basis_vector_5'> +1.0837837e-04 </wgt>
</rwgt>
</event>
<event>
 4      1 +5.9529000e-06 6.76880800e+02 7.81860800e-03 9.07300800e-02
        2 -1    0    0  501    0 +0.0000000000e+00 +0.0000000000e+00 +1.8375032835e+03 1.8375032835e+03 0.0000000000e+00 0.0000e+00 -1.0000e+00
       -2 -1    0    0    0  501 -0.0000000000e+00 -0.0000000000e+00 -6.2335614072e+01 6.2335614072e+01 0.0000000000e+00 0.0000e+00 1.0000e+00
      -13  1    1    2    0    0 -1.3541452809e+02 +2.7672397004e+02 +4.9435101029e+02 5.8249134877e+02 0.0000000000e+00 0.0000e+00 1.0000e+00
       13  1    1    2    0    0 +1.3541452809e+02 -2.7672397004e+02 +1.2808166592e+03 1.3173475488e+03 0.0000000000e+00 0.0000e+00 -1.0000e+00
<mgrwt>
<rscale>  0 0.67688077E+03</rscale>
<asrwt>0</asrwt>
<pdfrwt beam="1">  1        2 0.28269277E+00 0.67688077E+03</pdfrwt>
<pdfrwt beam="2">  1       -2 0.95900959E-02 0.67688077E+03</pdfrwt>
<totfact> 0.68494834E+02</totfact>
</mgrwt>
<rwgt>
<wgt id='morphing_basis_vector_1'> +2.3558171e-04 </wgt>
<wgt id='morphing_basis_vector_2'> +1.4097365e-04 </wgt>
<wgt id='morphing_basis_vector_3'> +1.9697826e-04 </wgt>
<wgt id='morphing_basis_vector_4'> +9.4446664e-05 </wgt>
<wgt id='morphing_basis_vector_5'> +1.4797975e-04 </wgt>
</rwgt>
</event>
<event>
 4      1 +5.9529000e-06 6.90883400e+02 7.81860800e-03 9.05173500e-02
        2 -1    0    0  501    0 +0.0000000000e+00 +0.0000000000e+00 +1.0804768829e+03 1.0804768829e+03 0.0000000000e+00 0.0000e+00 -1.0000e+00
       -2 -1    0    0    0  501 -0.0000000000e+00 -0.0000000000e+00 -1.1044194417e+02 1.1044194417e+02 0.0000000000e+00 0.0000e+00 1.0000e+00
      -13  1    1    2    0    0 -3.4454889700e+02 +2.1794130599e+01 +5.0548899130e+02 6.1213401056e+02 0.0000000000e+00 0.0000e+00 1.0000e+00
       13  1    1    2    0    0 +3.4454889700e+02 -2.1794130599e+01 +4.6454594745e+02 5.7878481653e+02 0.0000000000e+00 0.0000e+00 -1.0000e+00
<mgrwt>
<rscale>  0 0.69088340E+03</rscale>
<asrwt>0</asrwt>
<pdfrwt beam="1">  1        2 0.16622721E+00 0.69088340E+03</pdfrwt>
<pdfrwt beam="2">  1       -2 0.16991069E-01 0.69088340E+03</pdfrwt>
<totfact> 0.72705950E+02</totfact>
</mgrwt>
<rwgt>
<wgt id='morphing_basis_vector_1'> +2.6079100e-04 </wgt>
<wgt id='morphing_basis_vector_2'> +1.7712409e-04 </wgt>
<wgt id='morphing_basis_vector_3'> +2.1580549e-04 </wgt>
<wgt id='morphing_basis_vector_4'> +9.5474718e-05 </wgt>
<wgt id='morphing_basis_vector_5'> +1.6310293e-04 </wgt>
</rwgt>
</event>
<event>
 4      1 +5.9529000e-06 7.30362300e+02 7.81860800e-03 8.99447600e-02
        2 -1    0    0  501    0 +0.0000000000e+00 +0.0000000000e+00 +3.0435120186e+02 3.0435120186e+02 0.0000000000e+00 0.0000e+00 1.0000e+00
       -2 -1    0    0    0  501 -0.0000000000e+00 -0.0000000000e+00 -4.3816907032e+02 4.3816907032e+02 0.0000000000e+00 0.0000e+00 -1.0000e+00
      -13  1    1    2    0    0 +1.0207673253e+02 -3.4645611281e+02 -1.2171160757e+02 3.8113673772e+02 0.0000000000e+00 0.0000e+00 -1.0000e+00
       13  1    1    2    0    0 -1.0207673253e+02 +3.4645611281e+02 -1.2106260887e+01 3.6138353446e+02 0.0000000000e+00 0.0000e+00 1.0000e+00
<mgrwt>
<rscale>  0 0.73036233E+03</rscale>
<asrwt>0</asrwt>
<pdfrwt beam="1">  1        2 0.46823262E-01 0.73036233E+03</pdfrwt>
<pdfrwt beam="2">  1       -2 0.67410627E-01 0.73036233E+03</pdfrwt>
<totfact> 0.27267859E+02</totfact>
</mgrwt>
<rwgt>
<wgt id='morphing_basis_vector_1'> +3.0987276e-04 </wgt>
<wgt id='morphing_basis_vector_2'> +1.9846614e-04 </wgt>
<wgt id='morphing_basis_vector_3'> +2.6611878e-04 </wgt>
<wgt id='morphing_basis_vector_4'> +1.2977199e-04 </wgt>
<wgt id='morphing_basis_vector_5'> +2.1239798e-04 </wgt>
</rwgt>
</event>
<event>
 4      1 +5.9529000e-06 7.23054400e+02 7.81860800e-03 9.00478600e-02
        2 -1    0    0  501    0 +0.0000000000e+00 +0.0000000000e+00 +1.7207557251e+03 1.7207557251e+03 0.0000000000e+00 0.0000e+00 1.0000e+00
       -2 -1    0    0    0  501 -0.0000000000e+00 -0.0000000000e+00 -7.5956122640e+01 7.5956122640e+01 0.0000000000e+00 0.0000e+00 -1.0000e+00
      -13  1    1    2    0    0 -3.2452039746e+02 +1.1679574373e+02 +5.5307609055e+02 6.5180357168e+02 0.0000000000e+00 0.0000e+00 -1.0000e+00
       13  1    1    2    0    0 +3.2452039746e+02 -1.1679574373e+02 +1.0917235119e+03 1.1449082760e+03 0.0000000000e+00 0.0000e+00 1.0000e+00
<mgrwt>
<rscale>  0 0.72305445E+03</rscale>
<asrwt>0</asrwt>
<pdfrwt beam="1">  1        2 0.26473162E+00 0.72305445E+03</pdfrwt>
<pdfrwt beam="2">  1       -2 0.11685559E-01 0.72305445E+03</pdfrwt>
<totfact> 0.57932200E+02</totfact>
</mgrwt>
<rwgt>
<wgt id='morphing_basis_vector_1'> +2.9656287e-04 </wgt>
<wgt id='morphing_basis_vector_2'> +1.8297941e-04 </wgt>
<wgt id='morphing_basis_vector_3'> +2.5474086e-04 </wgt>
<wgt id='morphing_basis_vector_4'> +1.2692109e-04 </wgt>
<wgt id='morphing_basis_vector_5'> +2.0268471e-04 </wgt>
</rwgt>
</event>
<event>
 4      1 +5.9529000e-06 6.78245300e+02 7.81860800e-03 9.07091100e-02
        2 -1    0    0  501    0 +0.0000000000e+00 +0.0000000000e+00 +7.2761878835e+02 7.2761878835e+02 0.0000000000e+00 0.0000e+00 1.0000e+00
       -2 -1    0    0    0  501 -0.0000000000e+00 -0.0000000000e+00 -1.5805550575e+02 1.5805550575e+02 0.0000000000e+00 0.0000e+00 -1.0000e+00
      -13  1    1    2    0    0 -1.0937720202e+02 -3.2058125306e+02 +3.0617670990e+02 4.5659598095e+02 0.0000000000e+00 0.0000e+00 1.0000e+00
       13  1    1    2    0    0 +1.0937720202e+02 +3.2058125306e+02 +2.6338657270e+02 4.2907831315e+02 0.0000000000e+00 0.0000e+00 -1.0000e+00
<mgrwt>
<rscale>  0 0.67824525E+03</rscale>
<asrwt>0</asrwt>
<pdfrwt beam="1">  1        2 0.11194135E+00 0.67824525E+03</pdfrwt>
<pdfrwt beam="2">  1       -2 0.24316232E-01 0.67824525E+03</pdfrwt>
<totfact> 0.68029486E+02</totfact>
</mgrwt>
<rwgt>
<wgt id='morphing_basis_vector_1'> +2.4537073e-04 </wgt>
<wgt id='morphing_basis_vector_2'> +1.6723169e-04 </wgt>
<wgt id='morphing_basis_vector_3'> +2.0083850e-04 </wgt>
<wgt id='morphing_basis_vector_4'> +8.7193014e-05 </wgt>
<wgt id='morphing_basis_vector_5'> +1.4925708e-04 </wgt>
</rwgt>
</event>
<event>
 4      1 +5.9529000e-06 7.21137900e+02 7.81860800e-03 9.00751200e-02
        2 -1    0    0  501    0 +0.0000000000e+00 +0.0000000000e+00 +1.1207313687e+03 1.1207313687e+03 0.0000000000e+00 0.0000e+00 1.0000e+00
       -2 -1    0    0    0  501 -0.0000000000e+00 -0.0000000000e+00 -1.1600456141e+02 1.1600456141e+02 0.0000000000e+00 0.0000e+00 -1.0000e+00
      -13  1    1    2    0    0 +1.7712204269e+02 +1.1501666619e+02 +1.1643432303e+00 2.1119281996e+02 0.0000000000e+00 0.0000e+00 -1.0000e+00
       13  1    1    2    0    0 -1.7712204269e+02 -1.1501666619e+02 +1.0035624641e+03 1.0255431102e+03 0.0000000000e+00 0.0000e+00 1.0000e+00
<mgrwt>
<rscale>  0 0.72113785E+03</rscale>
<asrwt>0</asrwt>
<pdfrwt beam="1">  1        2 0.17242020E+00 0.72113785E+03</pdfrwt>
<pdfrwt beam="2">  1       -2 0.17846856E-01 0.72113785E+03</pdfrwt>
<totfact> 0.63403171E+02</totfact>
</mgrwt>
<rwgt>
<wgt id='morphing_basis_vector_1'> +2.9082574e-04 </wgt>
<wgt id='morphing_basis_vector_2'> +1.7188798e-04 </wgt>
<wgt id='morphing_basis_vector_3'> +2.5089156e-04 </wgt>
<wgt id='morphing_basis_vector_4'> +1.2871706e-04 </wgt>
<wgt id='morphing_basis_vector_5'> +2.0026635e-04 </wgt>
</rwgt>
</event>
<event>
 4      1 +5.9529000e-06 6.64738400e+02 7.81860800e-03 9.09189400e-02
        2 -1    0    0  501    0 +0.0000000000e+00 +0.0000000000e+00 +1.1612922936e+03 1.1612922936e+03 0.0000000000e+00 0.0000e+00 -1.0000e+00
       -2 -1    0    0    0  501 -0.0000000000e+00 -0.0000000000e+00 -9.5126161264e+01 9.5126161264e+01 0.0000000000e+00 0.0000e+00 1.0000e+00
      -13  1    1    2    0    0 -1.4868517596e+02 -2.1183897326e+02 +1.3893489856e+02 2.9374468196e+02 0.0000000000e+00 0.0000e+00 1.0000e+00
       13  1    1    2    0    0 +1.4868517596e+02 +2.1183897326e+02 +9.2723123382e+02 9.6267377295e+02 0.0000000000e+00 0.0000e+00 -1.0000e+00
<mgrwt>
<rscale>  0 0.66473838E+03</rscale>
<asrwt>0</asrwt>
<pdfrwt beam="1">  1        2 0.17866034E+00 0.66473838E+03</pdfrwt>
<pdfrwt beam="2">  1       -2 0.14634795E-01 0.66473838E+03</pdfrwt>
<totfact> 0.83099517E+02</totfact>
</mgrwt>
<rwgt>
<wgt id='morphing_basis_vector_1'> +2.2061847e-04 </wgt>
<wgt id='morphing_basis_vector_2'> +1.2909245e-04 </wgt>
<wgt id='morphing_basis_vector_3'> +1.8349769e-04 </wgt>
<wgt id='morphing_basis_vector_4'> +8.7684413e-05 </wgt>
<wgt id='morphing_basis_vector_5'> +1.3555491e-04 </wgt>
</rwgt>
</event>
<event>
 4      1 +5.9529000e-06 6.92567000e+02 7.81860800e-03 9.04921200e-02
        2 -1    0    0  501    0 +0.0000000000e+00 +0.0000000000e+00 +2.4065967450e+03 2.4065967450e+03 0.0000000000e+00 0.0000e+00 -1.0000e+00
       -2 -1    0    0    0  501 -0.0000000000e+00 -0.0000000000e+00 -4.9826493977e+01 4.9826493977e+01 0.0000000000e+00 0.0000e+00 1.0000e+00
      -13  1    1    2    0    0 -2.3865257936e+02 -2.4350842237e+02 +9.6378315990e+02 1.0223156972e+03 0.0000000000e+00 0.0000e+00 1.0000e+00
       13  1    1    2    0    0 +2.3865257936e+02 +2.4350842237e+02 +1.3929870911e+03 1.4341075418e+03 0.0000000000e+00 0.0000e+00 -1.0000e+00
<mgrwt>
<rscale>  0 0.69256705E+03</rscale>
<asrwt>0</asrwt>
<pdfrwt beam="1">  1        2 0.37024556E+00 0.69256705E+03</pdfrwt>
<pdfrwt beam="2">  1       -2 0.76656163E-02 0.69256705E+03</pdfrwt>
<totfact> 0.46669810E+02</totfact>
</mgrwt>
<rwgt>
<wgt id='morphing_basis_vector_1'> +2.5758999e-04 </wgt>
<wgt id='morphing_basis_vector_2'> +1.6209433e-04 </wgt>
<wgt id='morphing_basis_vector_3'> +2.1612170e-04 </wgt>
<wgt id='morphing_basis_vector_4'> +1.0210899e-04 </wgt>
<wgt id='morphing_basis_vector_5'> +1.6514702e-04 </wgt>
</rwgt>
</event>
<event>
 4      1 +5.9529000e-06 6.74347500e+02 7.81860800e-03 9.07691300e-02
        2 -1    0    0  501    0 +0.0000000000e+00 +0.0000000000e+00 +9.9447865865e+02 9.9447865865e+02 0.0000000000e+00 0.0000e+00 -1.0000e+00
       -2 -1    0    0    0  501 -0.0000000000e+00 -0.0000000000e+00 -1.1431733133e+02 1.1431733133e+02 0.0000000000e+00 0.0000e+00 1.0000e+00
      -13  1    1    2    0    0 +1.9695706016e+02 -2.7361917510e+02 +4.3159885197e+02 5.4766513998e+02 0.0000000000e+00 0.0000e+00 1.0000e+00
       13  1    1    2    0    0 -1.9695706016e+02 +2.7361917510e+02 +4.4856247535e+02 5.6113085000e+02 0.0000000000e+00 0.0000e+00 -1.0000e+00
<mgrwt>
<rscale>  0 0.67434753E+03</rscale>
<asrwt>0</asrwt>
<pdfrwt beam="1">  1        2 0.15299671E+00 0.67434753E+03</pdfrwt>
<pdfrwt beam="2">  1       -2 0.17587282E-01 0.67434753E+03</pdfrwt>
<totfact> 0.77539891E+02</totfact>
</mgrwt>
<rwgt>
<wgt id='morphing_basis_vector_1'> +2.3867610e-04 </wgt>
<wgt id='morphing_basis_vector_2'> +1.5782442e-04 </wgt>
<wgt id='morphing_basis_vector_3'> +1.9581155e-04 </wgt>
<wgt id='morphing_basis_vector_4'> +8.6812058e-05 </wgt>
<wgt id='morphing_basis_vector_5'> +1.4520193e-04 </wgt>
</rwgt>
</event>
<event>
 4      1 +5.9529000e-06 6.26279400e+02 7.81860800e-03 9.15461700e-02
        2 -1    0    0  501    0 +0.0000000000e+00 +0.0000000000e+00 +4.8664933257e+02 4.8664933257e+02 0.0000000000e+00 0.0000e+00 -1.0000e+00
       -2 -1    0    0    0  501 -0.0000000000e+00 -0.0000000000e+00 -2.0149309665e+02 2.0149309665e+02 0.0000000000e+00 0.0000e+00 1.0000e+00
      -13  1    1    2    0    0 -1.4003731951e+02 +1.5318779531e+02 -1.1506034430e+02 2.3730957486e+02 0.0000000000e+00 0.0000e+00 1.0000e+00
       13  1    1    2    0    0 +1.4003731951e+02 -1.5318779531e+02 +4.0021658022e+02 4.5083285436e+02 0.0000000000e+00 0.0000e+00 -1.0000e+00
<mgrwt>
<rscale>  0 0.62627943E+03</rscale>
<asrwt>0</asrwt>
<pdfrwt beam="1">  1        2 0.74869128E-01 0.62627943E+03</pdfrwt>
<pdfrwt beam="2">  1       -2 0.30998938E-01 0.62627943E+03</pdfrwt>
<totfact> 0.71708521E+02</totfact>
</mgrwt>
<rwgt>
<wgt id='morphing_basis_vector_1'> +1.8060458e-04 </wgt>
<wgt id='morphing_basis_vector_2'> +1.0383494e-04 </wgt>
<wgt id='morphing_basis_vector_3'> +1.4619288e-04 </wgt>
<wgt id='morphing_basis_vector_4'> +6.6200958e-05 </wgt>
<wgt id='morphing_basis_vector_5'> +1.0099302e-04 </wgt>
</rwgt>
</event>
<event>
 4      1 +5.9529000e-06 7.00892300e+02 7.81860800e-03 9.03684900e-02
        2 -1    0    0  501    0 +0.0000000000e+00 +0.0000000000e+00 +1.2732507756e+03 1.2732507756e+03 0.0000000000e+00 0.0000e+00 1.0000e+00
       -2 -1    0    0    0  501 -0.0000000000e+00 -0.0000000000e+00 -9.6455856498e+01 9.6455856498e+01 0.0000000000e+00 0.0000e+00 -1.0000e+00
      -13  1    1    2    0    0 -1.0343435709e+02 -2.5517651542e+02 +1.6473542134e+02 3.2086052934e+02 0.0000000000e+00 0.0000e+00 -1.0000e+00
       13  1    1    2    0    0 +1.0343435709e+02 +2.5517651542e+02 +1.0120594977e+03 1.0488461027e+03 0.0000000000e+00 0.0000e+00 1.0000e+00
<mgrwt>
<rscale>  0 0.70089227E+03</rscale>
<asrwt>0</asrwt>
<pdfrwt beam="1">  1        2 0.19588472E+00 0.70089227E+03</pdfrwt>
<pdfrwt beam="2">  1       -2 0.14839363E-01 0.70089227E+03</pdfrwt>
<totfact> 0.69966145E+02</totfact>
</mgrwt>
<rwgt>
<wgt id='morphing_basis_vector_1'> +2.6414798e-04 </wgt>
<wgt id='morphing_basis_vector_2'> +1.5633445e-04 </wgt>
<wgt id='morphing_basis_vector_3'> +2.2493226e-04 </wgt>
<wgt id='morphing_basis_vector_4'> +1.1233706e-04 </wgt>
<wgt id='morphing_basis_vector_5'> +1.7495695e-04 </wgt>
</rwgt>
</event>
<event>
 4      1 +5.9529000e-06 6.76295300e+02 7.81860800e-03 9.07390900e-02
        2 -1    0    0  501    0 +0.0000000000e+00 +0.0000000000e+00 +1.9519049391e+02 1.9519049391e+02 0.0000000000e+00 0.0000e+00 1.0000e+00
       -2 -1    0    0    0  501 -0.0000000000e+00 -0.0000000000e+00 -5.8580631965e+02 5.8580631965e+02 0.0000000000e+00 0.0000e+00 -1.0000e+00
      -13  1    1    2    0    0 +2.3795171878e+02 -8.4201861284e+01 +6.4545903415e+01 2.6053243092e+02 0.0000000000e+00 0.0000e+00 1.0000e+00
       13  1    1    2    0    0 -2.3795171878e+02 +8.4201861284e+01 -4.5516172915e+02 5.2046438264e+02 0.0000000000e+00 0.0000e+00 -1.0000e+00
<mgrwt>
<rscale>  0 0.67629528E+03</rscale>
<asrwt>0</asrwt>
<pdfrwt beam="1">  1        2 0.30029307E-01 0.67629528E+03</pdfrwt>
<pdfrwt beam="2">  1       -2 0.90124049E-01 0.67629528E+03</pdfrwt>
<totfact> 0.23736971E+02</totfact>
</mgrwt>
<rwgt>
<wgt id='morphing_basis_vector_1'> +2.9459101e-04 </wgt>
<wgt id='morphing_basis_vector_2'> +3.2484065e-04 </wgt>
<wgt id='morphing_basis_vector_3'> +2.1296389e-04 </wgt>
<wgt id='morphing_basis_vector_4'> +3.4851958e-05 </wgt>
<wgt id='morphing_basis_vector_5'> +1.4616159e-04 </wgt>
</rwgt>
</event>
<event>
 4      1 +5.9529000e-06 6.95884900e+02 7.81860800e-03 9.04426300e-02
        2 -1    0    0  501    0 +0.0000000000e+00 +0.0000000000e+00 +3.1357316220e+03 3.1357316220e+03 0.0000000000e+00 0.0000e+00 -1.0000e+00
       -2 -1    0    0    0  501 -0.0000000000e+00 -0.0000000000e+00 -3.8607884495e+01 3.8607884495e+01 0.0000000000e+00 0.0000e+00 1.0000e+00
      -13  1    1    2    0    0 +1.3823284778e+02 -3.0265813349e+02 +1.0844061711e+03 1.1343046372e+03 0.0000000000e+00 0.0000e+00 1.0000e+00
       13  1    1    2    0    0 -1.3823284778e+02 +3.0265813349e+02 +2.0127175664e+03 2.0400348694e+03 0.0000000000e+00 0.0000e+00 -1.0000e+00
<mgrwt>
<rscale>  0 0.69588495E+03</rscale>
<asrwt>0</asrwt>
<pdfrwt beam="1">  1        2 0.48242005E+00 0.69588495E+03</pdfrwt>
<pdfrwt beam="2">  1       -2 0.59396770E-02 0.69588495E+03</pdfrwt>
<totfact> 0.24756407E+02</totfact>
</mgrwt>
<rwgt>
<wgt id='morphing_basis_vector_1'> +2.6006931e-04 </wgt>
<wgt id='morphing_basis_vector_2'> +1.5948236e-04 </wgt>
<wgt id='morphing_basis_vector_3'> +2.1958162e-04 </wgt>
<wgt id='morphing_basis_vector_4'> +1.0623321e-04 </wgt>
<wgt id='morphing_basis_vector_5'> +1.6900959e-04 </wgt>
</rwgt>
</event>
<event>
 4      1 +5.9529000e-06 7.08132600e+02 7.81860800e-03 9.02624000e-02
        2 -1    0    0  501    0 +0.0000000000e+00 +0.0000000000e+00 +3.8794515820e+02 3.8794515820e+02 0.0000000000e+00 0.0000e+00 1.0000e+00
       -2 -1    0    0    0  501 -0.0000000000e+00 -0.0000000000e+00 -3.2314607356e+02 3.2314607356e+02 0.0000000000e+00 0.0000e+00 -1.0000e+00
      -13  1    1    2    0    0 +3.3294224560e+02 +6.0889904081e+01 +1.3678014352e+02 3.6505742971e+02 0.0000000000e+00 0.0000e+00 -1.0000e+00
       13  1    1    2    0    0 -3.3294224560e+02 -6.0889904081e+01 -7.1981058884e+01 3.4603380205e+02 0.0000000000e+00 0.0000e+00 1.0000e+00
<mgrwt>
<rscale>  0 0.70813263E+03</rscale>
<asrwt>0</asrwt>
<pdfrwt beam="1">  1        2 0.59683871E-01 0.70813263E+03</pdfrwt>
<pdfrwt beam="2">  1       -2 0.49714780E-01 0.70813263E+03</pdfrwt>
<totfact> 0.38515058E+02</totfact>
</mgrwt>
<rwgt>
<wgt id='morphing_basis_vector_1'> +2.9902324e-04 </wgt>
<wgt id='morphing_basis_vector_2'> +2.4052955e-04 </wgt>
<wgt id='morphing_basis_vector_3'> +2.4346855e-04 </wgt>
<wgt id='morphing_basis_vector_4'> +9.0629011e-05 </wgt>
<wgt id='morphing_basis_vector_5'> +1.8297156e-04 </wgt>
</rwgt>
</event>
<event>
 4      1 +5.9529000e-06 6.41971300e+02 7.81860800e-03 9.12846900e-02
        2 -1    0    0  501    0 +0.0000000000e+00 +0.0000000000e+00 +5.2958620700e+02 5.2958620700e+02 0.0000000000e+00 0.0000e+00 -1.0000e+00
       -2 -1    0    0    0  501 -0.0000000000e+00 -0.0000000000e+00 -1.9455146787e+02 1.9455146787e+02 0.0000000000e+00 0.0000e+00 1.0000e+00
      -13  1    1    2    0    0 -7.4482378722e+01 +1.8550612343e+02 -1.1576697692e+02 2.3100246647e+02 0.0000000000e+00 0.0000e+00 1.0000e+00
       13  1    1    2    0    0 +7.4482378722e+01 -1.8550612343e+02 +4.5080171606e+02 4.9313520841e+02 0.0000000000e+00 0.0000e+00 -1.0000e+00
<mgrwt>
<rscale>  0 0.64197126E+03</rscale>
<asrwt>0</asrwt>
<pdfrwt beam="1">  1        2 0.81474801E-01 0.64197126E+03</pdfrwt>
<pdfrwt beam="2">  1       -2 0.29930995E-01 0.64197126E+03</pdfrwt>
<totfact> 0.69244660E+02</totfact>
</mgrwt>
<rwgt>
<wgt id='morphing_basis_vector_1'> +1.9601985e-04 </wgt>
<wgt id='morphing_basis_vector_2'> +1.1317491e-04 </wgt>
<wgt id='morphing_basis_vector_3'> +1.6058633e-04 </wgt>
<wgt id='morphing_basis_vector_4'> +7.4570599e-05 </wgt>
<wgt id='morphing_basis_vector_5'> +1.1423854e-04 </wgt>
</rwgt>
</event>
<event>
 4      1 +5.9529000e-06 6.64494200e+02 7.81860800e-03 9.09227800e-02
        2 -1    0    0  501    0 +0.0000000000e+00 +0.0000000000e+00 +5.9561217324e+02 5.9561217324e+02 0.0000000000e+00 0.0000e+00 1.0000e+00
       -2 -1    0    0    0  501 -0.0000000000e+00 -0.0000000000e+00 -1.8533556799e+02 1.8533556799e+02 0.0000000000e+00 0.0000e+00 -1.0000e+00
      -13  1    1    2    0    0 +8.4398385255e+01 +2.1616536692e+02 -7.4308642510e+01 2.4366437499e+02 0.0000000000e+00 0.0000e+00 -1.0000e+00
       13  1    1    2    0    0 -8.4398385255e+01 -2.1616536692e+02 +4.8458524776e+02 5.3728336624e+02 0.0000000000e+00 0.0000e+00 1.0000e+00
<mgrwt>
<rscale>  0 0.66449415E+03</rscale>
<asrwt>0</asrwt>
<pdfrwt beam="1">  1        2 0.91632641E-01 0.66449415E+03</pdfrwt>
<pdfrwt beam="2">  1       -2 0.28513165E-01 0.66449415E+03</pdfrwt>
<totfact> 0.65760292E+02</totfact>
</mgrwt>
<rwgt>
<wgt id='morphing_basis_vector_1'> +2.2013790e-04 </wgt>
<wgt id='morphing_basis_vector_2'> +1.2828175e-04 </wgt>
<wgt id='morphing_basis_vector_3'> +1.8318943e-04 </wgt>
<wgt id='morphing_basis_vector_4'> +8.7731815e-05 </wgt>
<wgt id='morphing_basis_vector_5'> +1.3531585e-04 </wgt>
</rwgt>
</event>
<event>
 4      1 +5.9529000e-06 7.21465100e+02 7.81860800e-03 9.00704600e-02
        2 -1    0    0  501    0 +0.0000000000e+00 +0.0000000000e+00 +3.7498821407e+02 3.7498821407e+02 0.0000000000e+00 0.0000e+00 -1.0000e+00
       -2 -1    0    0    0  501 -0.0000000000e+00 -0.0000000000e+00 -3.4701887399e+02 3.4701887399e+02 0.0000000000e+00 0.0000e+00 1.0000e+00
      -13  1    1    2    0    0 -1.0709081673e+02 -9.6542172603e+00 -3.3060862026e+02 3.4765457962e+02 0.0000000000e+00 0.0000e+00 1.0000e+00
       13  1    1    2    0    0 +1.0709081673e+02 +9.6542172603e+00 +3.5857796034e+02 3.7435250844e+02 0.0000000000e+00 0.0000e+00 -1.0000e+00
<mgrwt>
<rscale>  0 0.72146514E+03</rscale>
<asrwt>0</asrwt>
<pdfrwt beam="1">  1        2 0.57690494E-01 0.72146514E+03</pdfrwt>
<pdfrwt beam="2">  1       -2 0.53387519E-01 0.72146514E+03</pdfrwt>
<totfact> 0.34764713E+02</totfact>
</mgrwt>
<rwgt>
<wgt id='morphing_basis_vector_1'> +2.9116502e-04 </wgt>
<wgt id='morphing_basis_vector_2'> +1.7181420e-04 </wgt>
<wgt id='morphing_basis_vector_3'> +2.5128456e-04 </wgt>
<wgt id='morphing_basis_vector_4'> +1.2911539e-04 </wgt>
<wgt id='morphing_basis_vector_5'> +2.0069934e-04 </wgt>
</rwgt>
</event>
<event>
 4      1 +5.9529000e-06 7.36038700e+02 7.81860800e-03 8.98655600e-02
        2 -1    0    0  501    0 +0.0000000000e+00 +0.0000000000e+00 +1.9193590577e+03 1.9193590577e+03 0.0000000000e+00 0.0000e+00 -1.0000e+00
       -2 -1    0    0    0  501 -0.0000000000e+00 -0.0000000000e+00 -7.0564307987e+01 7.0564307987e+01 0.0000000000e+00 0.0000e+00 1.0000e+00
      -13  1    1    2    0    0 +3.4437296414e+02 -1.1615128629e+02 +7.6781528522e+02 8.4948465081e+02 0.0000000000e+00 0.0000e+00 1.0000e+00
       13  1    1    2    0    0 -3.4437296414e+02 +1.1615128629e+02 +1.0809794645e+03 1.1404387149e+03 0.0000000000e+00 0.0000e+00 -1.0000e+00
<mgrwt>
<rscale>  0 0.73603870E+03</rscale>
<asrwt>0</asrwt>
<pdfrwt beam="1">  1        2 0.29528597E+00 0.73603870E+03</pdfrwt>
<pdfrwt beam="2">  1       -2 0.10856049E-01 0.73603870E+03</pdfrwt>
<totfact> 0.50618791E+02</totfact>
</mgrwt>
<rwgt>
<wgt id='morphing_basis_vector_1'> +3.1807622e-04 </wgt>
<wgt id='morphing_basis_vector_2'> +2.0344546e-04 </wgt>
<wgt id='morphing_basis_vector_3'> +2.7420087e-04 </wgt>
<wgt id='morphing_basis_vector_4'> +1.3471370e-04 </wgt>
<wgt id='morphing_basis_vector_5'> +2.2025278e-04 </wgt>
</rwgt>
</event>
<event>
 4      1 +5.9529000e-06 6.32430400e+02 7.81860800e-03 9.14427300e-02
        2 -1    0    0  501    0 +0.0000000000e+00 +0.0000000000e+00 +5.7953262329e+02 5.7953262329e+02 0.0000000000e+00 0.0000e+00 -1.0000e+00
       -2 -1    0    0    0  501 -0.0000000000e+00 -0.0000000000e+00 -1.7253913974e+02 1.7253913974e+02 0.0000000000e+00 0.0000e+00 1.0000e+00
      -13  1    1    2    0    0 +2.6745108452e+01 +1.8699931515e+02 -9.8066972130e+01 2.1284072851e+02 0.0000000000e+00 0.0000e+00 1.0000e+00
       13  1    1    2    0    0 -2.6745108452e+01 -1.8699931515e+02 +5.0506045568e+02 5.3923103452e+02 0.0000000000e+00 0.0000e+00 -1.0000e+00
<mgrwt>
<rscale>  0 0.63243042E+03</rscale>
<asrwt>0</asrwt>
<pdfrwt beam="1">  1        2 0.89158864E-01 0.63243042E+03</pdfrwt>
<pdfrwt beam="2">  1       -2 0.26544483E-01 0.63243042E+03</pdfrwt>
<totfact> 0.76928043E+02</totfact>
</mgrwt>
<rwgt>
<wgt id='morphing_basis_vector_1'> +1.8648259e-04 </wgt>
<wgt id='morphing_basis_vector_2'> +1.0728172e-04 </wgt>
<wgt id='morphing_basis_vector_3'> +1.5170342e-04 </wgt>
<wgt id='morphing_basis_vector_4'> +6.9433971e-05 </wgt>
<wgt id='morphing_basis_vector_5'> +1.0604930e-04 </wgt>
</rwgt>
</event>
<event>
 4      1 +5.9529000e-06 6.95104200e+02 7.81860800e-03 9.04542500e-02
        2 -1    0    0  501    0 +0.0000000000e+00 +0.0000000000e+00 +2.1571001922e+02 2.1571001922e+02 0.0000000000e+00 0.0000e+00 1.0000e+00
       -2 -1    0    0    0  501 -0.0000000000e+00 -0.0000000000e+00 -5.5997610156e+02 5.5997610156e+02 0.0000000000e+00 0.0000e+00 -1.0000e+00
      -13  1    1    2    0    0 -1.6162250248e+02 -1.7467822991e+02 +1.1052542418e+02 2.6239319104e+02 0.0000000000e+00 0.0000e+00 1.0000e+00
       13  1    1    2    0    0 +1.6162250248e+02 +1.7467822991e+02 -4.5479150652e+02 5.1329292974e+02 0.0000000000e+00 0.0000e+00 -1.0000e+00
<mgrwt>
<rscale>  0 0.69510418E+03</rscale>
<asrwt>0</asrwt>
<pdfrwt beam="1">  1        2 0.33186157E-01 0.69510418E+03</pdfrwt>
<pdfrwt beam="2">  1       -2 0.86150168E-01 0.69510418E+03</pdfrwt>
<totfact> 0.23471774E+02</totfact>
</mgrwt>
<rwgt>
<wgt id='morphing_basis_vector_1'> +3.3165341e-04 </wgt>
<wgt id='morphing_basis_vector_2'> +3.8263367e-04 </wgt>
<wgt id='morphing_basis_vector_3'> +2.4290961e-04 </wgt>
<wgt id='morphing_basis_vector_4'> +3.0242506e-05 </wgt>
<wgt id='morphing_basis_vector_5'> +1.6623191e-04 </wgt>
</rwgt>
</event>
<event>
 4      1 +5.9529000e-06 6.85497600e+02 7.81860800e-03 9.05985400e-02
        2 -1    0    0  501    0 +0.0000000000e+00 +0.0000000000e+00 +6.5797485470e+02 6.5797485470e+02 0.0000000000e+00 0.0000e+00 -1.0000e+00
       -2 -1    0    0    0  501 -0.0000000000e+00 -0.0000000000e+00 -1.7854289149e+02 1.7854289149e+02 0.0000000000e+00 0.0000e+00 1.0000e+00
      -13  1    1    2    0    0 -2.1779648244e+02 +6.9656853952e+01 -7.1855393775e+01 2.3968851178e+02 0.0000000000e+00 0.0000e+00 1.0000e+00
       13  1    1    2    0    0 +2.1779648244e+02 -6.9656853952e+01 +5.5128735699e+02 5.9682923441e+02 0.0000000000e+00 0.0000e+00 -1.0000e+00
<mgrwt>
<rscale>  0 0.68549758E+03</rscale>
<asrwt>0</asrwt>
<pdfrwt beam="1">  1        2 0.10122690E+00 0.68549758E+03</pdfrwt>
<pdfrwt beam="2">  1       -2 0.27468138E-01 0.68549758E+03</pdfrwt>
<totfact> 0.62329637E+02</totfact>
</mgrwt>
<rwgt>
<wgt id='morphing_basis_vector_1'> +2.4454502e-04 </wgt>
<wgt id='morphing_basis_vector_2'> +1.4328496e-04 </wgt>
<wgt id='morphing_basis_vector_3'> +2.0639370e-04 </wgt>
<wgt id='morphing_basis_vector_4'> +1.0160720e-04 </wgt>
<wgt id='morphing_basis_vector_5'> +1.5731526e-04 </wgt>
</rwgt>
</event>
<event>
 4      1 +5.9529000e-06 6.52917900e+02 7.81860800e-03 9.11068800e-02
        2 -1    0    0  501    0 +0.0000000000e+00 +0.0000000000e+00 +2.6186428075e+03 2.6186428075e+03 0.0000000000e+00 0.0000e+00 1.0000e+00
       -2 -1    0    0    0  501 -0.0000000000e+00 -0.0000000000e+00 -4.0698730435e+01 4.0698730435e+01 0.0000000000e+00 0.0000e+00 -1.0000e+00
      -13  1    1    2    0    0 +2.5635911257e+02 -1.9705448370e+02 +1.4722563280e+03 1.5073450698e+03 0.0000000000e+00 0.0000e+00 1.0000e+00
       13  1    1    2    0    0 -2.5635911257e+02 +1.9705448370e+02 +1.1056877490e+03 1.1519964681e+03 0.0000000000e+00 0.0000e+00 -1.0000e+00
<mgrwt>
<rscale>  0 0.65291787E+03</rscale>
<asrwt>0</asrwt>
<pdfrwt beam="1">  1        2 0.40286799E+00 0.65291787E+03</pdfrwt>
<pdfrwt beam="2">  1       -2 0.62613452E-02 0.65291787E+03</pdfrwt>
<totfact> 0.48089795E+02</totfact>
</mgrwt>
<rwgt>
<wgt id='morphing_basis_vector_1'> +2.1891096e-04 </wgt>
<wgt id='morphing_basis_vector_2'> +1.5572271e-04 </wgt>
<wgt id='morphing_basis_vector_3'> +1.7362843e-04 </wgt>
<wgt id='morphing_basis_vector_4'> +7.0138434e-05 </wgt>
<wgt id='morphing_basis_vector_5'> +1.2402353e-04 </wgt>
</rwgt>
</event>
<event>
 4      1 +5.9529000e-06 6.79305700e+02 7.81860800e-03 9.06928500e-02
        2 -1    0    0  501    0 +0.0000000000e+00 +0.0000000000e+00 +1.4528856692e+02 1.4528856692e+02 0.0000000000e+00 0.0000e+00 -1.0000e+00
       -2 -1    0    0    0  501 -0.0000000000e+00 -0.0000000000e+00 -7.9403405870e+02 7.9403405870e+02 0.0000000000e+00 0.0000e+00 1.0000e+00
      -13  1    1    2    0    0 +2.1001161166e+02 -3.6004011255e+01 -6.9012197372e+02 7.2226692052e+02 0.0000000000e+00 0.0000e+00 1.0000e+00
       13  1    1    2    0    0 -2.1001161166e+02 +3.6004011255e+01 +4.1376481935e+01 2.1705570510e+02 0.0000000000e+00 0.0000e+00 -1.0000e+00
<mgrwt>
<rscale>  0 0.67930574E+03</rscale>
<asrwt>0</asrwt>
<pdfrwt beam="1">  1        2 0.22352087E-01 0.67930574E+03</pdfrwt>
<pdfrwt beam="2">  1       -2 0.12215909E+00 0.67930574E+03</pdfrwt>
<totfact> 0.15885013E+02</totfact>
</mgrwt>
<rwgt>
<wgt id='morphing_basis_vector_1'> +2.3706762e-04 </wgt>
<wgt id='morphing_basis_vector_2'> +1.3851011e-04 </wgt>
<wgt id='morphing_basis_vector_3'> +1.9930953e-04 </wgt>
<wgt id='morphing_basis_vector_4'> +9.7431235e-05 </wgt>
<wgt id='morphing_basis_vector_5'> +1.5058680e-04 </wgt>
</rwgt>
</event>
<event>
 4      1 +5.9529000e-06 6.43821800e+02 7.81860800e-03 9.12543700e-02
        2 -1    0    0  501    0 +0.0000000000e+00 +0.0000000000e+00 +2.0276374771e+03 2.0276374771e+03 0.0000000000e+00 0.0000e+00 1.0000e+00
       -2 -1    0    0    0  501 -0.0000000000e+00 -0.0000000000e+00 -5.1107072965e+01 5.1107072965e+01 0.0000000000e+00 0.0000e+00 -1.0000e+00
      -13  1    1    2    0    0 -2.2559994730e+02 +2.2958495543e+02 +1.0034192278e+03 1.0537811607e+03 0.0000000000e+00 0.0000e+00 -1.0000e+00
       13  1    1    2    0    0 +2.2559994730e+02 -2.2958495543e+02 +9.7311117634e+02 1.0249633893e+03 0.0000000000e+00 0.0000e+00 1.0000e+00
<mgrwt>
<rscale>  0 0.64382177E+03</rscale>
<asrwt>0</asrwt>
<pdfrwt beam="1">  1        2 0.31194416E+00 0.64382177E+03</pdfrwt>
<pdfrwt beam="2">  1       -2 0.78626282E-02 0.64382177E+03</pdfrwt>
<totfact> 0.73553715E+02</totfact>
</mgrwt>
<rwgt>
<wgt id='morphing_basis_vector_1'> +2.0496485e-04 </wgt>
<wgt id='morphing_basis_vector_2'> +1.3615859e-04 </wgt>
<wgt id='morphing_basis_vector_3'> +1.6359023e-04 </wgt>
<wgt id='morphing_basis_vector_4'> +6.9227616e-05 </wgt>
<wgt id='morphing_basis_vector_5'> +1.1580766e-04 </wgt>
</rwgt>
</event>
<event>
 4      1 +5.9529000e-06 6.22906900e+02 7.81860800e-03 9.16034200e-02
        2 -1    0    0  501    0 +0.0000000000e+00 +0.0000000000e+00 +4.8379047244e+02 4.8379047244e+02 0.0000000000e+00 0.0000e+00 -1.0000e+00
       -2 -1    0    0    0  501 -0.0000000000e+00 -0.0000000000e+00 -2.0050675252e+02 2.0050675252e+02 0.0000000000e+00 0.0000e+00 1.0000e+00
      -13  1    1    2    0    0 +7.6018104402e+01 -2.0475558862e+02 -1.0227597601e+02 2.4117209320e+02 0.0000000000e+00 0.0000e+00 1.0000e+00
       13  1    1    2    0    0 -7.6018104402e+01 +2.0475558862e+02 +3.8555969593e+02 4.4312513176e+02 0.0000000000e+00 0.0000e+00 -1.0000e+00
<mgrwt>
<rscale>  0 0.62290692E+03</rscale>
<asrwt>0</asrwt>
<pdfrwt beam="1">  1        2 0.74429303E-01 0.62290692E+03</pdfrwt>
<pdfrwt beam="2">  1       -2 0.30847193E-01 0.62290692E+03</pdfrwt>
<totfact> 0.72823416E+02</totfact>
</mgrwt>
<rwgt>
<wgt id='morphing_basis_vector_1'> +1.7746347e-04 </wgt>
<wgt id='morphing_basis_vector_2'> +1.0203964e-04 </wgt>
<wgt id='morphing_basis_vector_3'> +1.4323980e-04 </wgt>
<wgt id='morphing_basis_vector_4'> +6.4460845e-05 </wgt>
<wgt id='morphing_basis_vector_5'> +9.8293628e-05 </wgt>
</rwgt>
</event>
<event>
 4      1 +5.9529000e-06 6.23202700e+02 7.81860800e-03 9.15983900e-02
        2 -1    0    0  501    0 +0.0000000000e+00 +0.0000000000e+00 +1.8618039332e+03 1.8618039332e+03 0.0000000000e+00 0.0000e+00 1.0000e+00
       -2 -1    0    0    0  501 -0.0000000000e+00 -0.0000000000e+00 -5.2151247140e+01 5.2151247140e+01 0.0000000000e+00 0.0000e+00 -1.0000e+00
      -13  1    1    2    0    0 +2.3296415268e+02 -1.7034806001e+02 +5.4398609319e+02 6.1580161381e+02 0.0000000000e+00 0.0000e+00 -1.0000e+00
       13  1    1    2    0    0 -2.3296415268e+02 +1.7034806001e+02 +1.2656665929e+03 1.2981535665e+03 0.0000000000e+00 0.0000e+00 1.0000e+00
<mgrwt>
<rscale>  0 0.62320269E+03</rscale>
<asrwt>0</asrwt>
<pdfrwt beam="1">  1        2 0.28643132E+00 0.62320269E+03</pdfrwt>
<pdfrwt beam="2">  1       -2 0.80232702E-02 0.62320269E+03</pdfrwt>
<totfact> 0.88005171E+02</totfact>
</mgrwt>
<rwgt>
<wgt id='morphing_basis_vector_1'> +1.7889839e-04 </wgt>
<wgt id='morphing_basis_vector_2'> +1.0579241e-04 </wgt>
<wgt id='morphing_basis_vector_3'> +1.4361795e-04 </wgt>
<wgt id='morphing_basis_vector_4'> +6.3633244e-05 </wgt>
<wgt id='morphing_basis_vector_5'> +9.8524888e-05 </wgt>
</rwgt>
</event>
<event>
 4      1 +5.9529000e-06 6.94760100e+02 7.81860800e-03 9.04593800e-02
        2 -1    0    0  501    0 +0.0000000000e+00 +0.0000000000e+00 +1.6731520500e+03 1.6731520500e+03 0.0000000000e+00 0.0000e+00 -1.0000e+00
       -2 -1    0    0    0  501 -0.0000000000e+00 -0.0000000000e+00 -7.2123081575e+01 7.2123081575e+01 0.0000000000e+00 0.0000e+00 1.0000e+00
      -13  1    1    2    0    0 +1.1517025606e+02 -2.8739751227e+02 +1.1962038525e+03 1.2356233952e+03 0.0000000000e+00 0.0000e+00 1.0000e+00
       13  1    1    2    0    0 -1.1517025606e+02 +2.8739751227e+02 +4.0482511591e+02 5.0965173639e+02 0.0000000000e+00 0.0000e+00 -1.0000e+00
<mgrwt>
<rscale>  0 0.69476005E+03</rscale>
<asrwt>0</asrwt>
<pdfrwt beam="1">  1        2 0.25740798E+00 0.69476005E+03</pdfrwt>
<pdfrwt beam="2">  1       -2 0.11095860E-01 0.69476005E+03</pdfrwt>
<totfact> 0.66881163E+02</totfact>
</mgrwt>
<rwgt>
<wgt id='morphing_basis_vector_1'> +2.9549234e-04 </wgt>
<wgt id='morphing_basis_vector_2'> +2.7220194e-04 </wgt>
<wgt id='morphing_basis_vector_3'> +2.3050337e-04 </wgt>
<wgt id='morphing_basis_vector_4'> +6.7160389e-05 </wgt>
<wgt id='morphing_basis_vector_5'> +1.6676026e-04 </wgt>
</rwgt>
</event>
<event>
 4      1 +5.9529000e-06 7.21383600e+02 7.81860800e-03 9.00716200e-02
        2 -1    0    0  501    0 +0.0000000000e+00 +0.0000000000e+00 +7.4246007529e+02 7.4246007529e+02 0.0000000000e+00 0.0000e+00 -1.0000e+00
       -2 -1    0    0    0  501 -0.0000000000e+00 -0.0000000000e+00 -1.7522637951e+02 1.7522637951e+02 0.0000000000e+00 0.0000e+00 1.0000e+00
      -13  1    1    2    0    0 -1.3256676523e+02 -1.6704069653e+02 -8.6441153433e+01 2.3010565953e+02 0.0000000000e+00 0.0000e+00 1.0000e+00
       13  1    1    2    0    0 +1.3256676523e+02 +1.6704069653e+02 +6.5367484921e+02 6.8758079528e+02 0.0000000000e+00 0.0000e+00 -1.0000e+00
<mgrwt>
<rscale>  0 0.72138365E+03</rscale>
<asrwt>0</asrwt>
<pdfrwt beam="1">  1        2 0.11422462E+00 0.72138365E+03</pdfrwt>
<pdfrwt beam="2">  1       -2 0.26957905E-01 0.72138365E+03</pdfrwt>
<totfact> 0.55496506E+02</totfact>
</mgrwt>
<rwgt>
<wgt id='morphing_basis_vector_1'> +2.9117390e-04 </wgt>
<wgt id='morphing_basis_vector_2'> +1.7212009e-04 </wgt>
<wgt id='morphing_basis_vector_3'> +2.5122475e-04 </wgt>
<wgt id='morphing_basis_vector_4'> +1.2891323e-04 </wgt>
<wgt id='morphing_basis_vector_5'> +2.0058834e-04 </wgt>
</rwgt>
</event>
<event>
 4      1 +5.9529000e-06 6.84289900e+02 7.81860800e-03 9.06168600e-02
        2 -1    0    0  501    0 +0.0000000000e+00 +0.0000000000e+00 +1.4390868768e+02 1.4390868768e+02 0.0000000000e+00 0.0000e+00 -1.0000e+00
       -2 -1    0    0    0  501 -0.0000000000e+00 -0.0000000000e+00 -8.1345446381e+02 8.1345446381e+02 0.0000000000e+00 0.0000e+00 1.0000e+00
      -13  1    1    2    0    0 +1.1160081181e+02 -2.4118698514e+02 -6.3626078475e+02 6.8953149980e+02 0.0000000000e+00 0.0000e+00 1.0000e+00
       13  1    1    2    0    0 -1.1160081181e+02 +2.4118698514e+02 -3.3284991384e+01 2.6783165169e+02 0.0000000000e+00 0.0000e+00 -1.0000e+00
<mgrwt>
<rscale>  0 0.68428989E+03</rscale>
<asrwt>0</asrwt>
<pdfrwt beam="1">  1        2 0.22139798E-01 0.68428989E+03</pdfrwt>
<pdfrwt beam="2">  1       -2 0.12514684E+00 0.68428989E+03</pdfrwt>
<totfact> 0.15077514E+02</totfact>
</mgrwt>
<rwgt>
<wgt id='morphing_basis_vector_1'> +2.4336150e-04 </wgt>
<wgt id='morphing_basis_vector_2'> +1.4323658e-04 </wgt>
<wgt id='morphing_basis_vector_3'> +2.0508436e-04 </wgt>
<wgt id='morphing_basis_vector_4'> +1.0048980e-04 </wgt>
<wgt id='morphing_basis_vector_5'> +1.5598003e-04 </wgt>
</rwgt>
</event>
<event>
 4      1 +5.9529000e-06 7.35485800e+02 7.81860800e-03 8.98732400e-02
        2 -1    0    0  501    0 +0.0000000000e+00 +0.0000000000e+00 +1.3121021712e+03 1.3121021712e+03 0.0000000000e+00 0.0000e+00 -1.0000e+00
       -2 -1    0    0    0  501 -0.0000000000e+00 -0.0000000000e+00 -1.0306729640e+02 1.0306729640e+02 0.0000000000e+00 0.0000e+00 1.0000e+00
      -13  1    1    2    0    0 -2.6101420492e+02 +1.0444669611e+02 +1.4838401604e+02 3.1789203154e+02 0.0000000000e+00 0.0000e+00 1.0000e+00
       13  1    1    2    0    0 +2.6101420492e+02 -1.0444669611e+02 +1.0606508588e+03 1.0972774361e+03 0.0000000000e+00 0.0000e+00 -1.0000e+00
<mgrwt>
<rscale>  0 0.73548575E+03</rscale>
<asrwt>0</asrwt>
<pdfrwt beam="1">  1        2 0.20186186E+00 0.73548575E+03</pdfrwt>
<pdfrwt beam="2">  1       -2 0.15856508E-01 0.73548575E+03</pdfrwt>
<totfact> 0.59637912E+02</totfact>
</mgrwt>
<rwgt>
<wgt id='morphing_basis_vector_1'> +3.1177581e-04 </wgt>
<wgt id='morphing_basis_vector_2'> +1.8606138e-04 </wgt>
<wgt id='morphing_basis_vector_3'> +2.7096245e-04 </wgt>
<wgt id='morphing_basis_vector_4'> +1.4045166e-04 </wgt>
<wgt id='morphing_basis_vector_5'> +2.1968386e-04 </wgt>
</rwgt>
</event>
<event>
 4      1 +5.9529000e-06 6.23517500e+02 7.81860800e-03 9.15930300e-02
        2 -1    0    0  501    0 +0.0000000000e+00 +0.0000000000e+00 +3.4030218852e+02 3.4030218852e+02 0.0000000000e+00 0.0000e+00 -1.0000e+00
       -2 -1    0    0    0  501 -0.0000000000e+00 -0.0000000000e+00 -2.8560946922e+02 2.8560946922e+02 0.0000000000e+00 0.0000e+00 1.0000e+00
      -13  1    1    2    0    0 -1.4129866897e+02 +2.4880425469e+02 +1.5161448477e+02 3.2381448855e+02 0.0000000000e+00 0.0000e+00 -1.0000e+00
       13  1    1    2    0    0 +1.4129866897e+02 -2.4880425469e+02 -9.6921765471e+01 3.0209716918e+02 0.0000000000e+00 0.0000e+00 1.0000e+00
<mgrwt>
<rscale>  0 0.62351753E+03</rscale>
<asrwt>0</asrwt>
<pdfrwt beam="1">  1        2 0.52354183E-01 0.62351753E+03</pdfrwt>
<pdfrwt beam="2">  1       -2 0.43939918E-01 0.62351753E+03</pdfrwt>
<totfact> 0.56735945E+02</totfact>
</mgrwt>
<rwgt>
<wgt id='morphing_basis_vector_1'> +2.0097164e-04 </wgt>
<wgt id='morphing_basis_vector_2'> +1.7341622e-04 </wgt>
<wgt id='morphing_basis_vector_3'> +1.4618734e-04 </wgt>
<wgt id='morphing_basis_vector_4'> +4.5412101e-05 </wgt>
<wgt id='morphing_basis_vector_5'> +9.8708375e-05 </wgt>
</rwgt>
</event>
<event>
 4      1 +5.9529000e-06 7.32066400e+02 7.81860800e-03 8.99209000e-02
        2 -1    0    0  501    0 +0.0000000000e+00 +0.0000000000e+00 +5.3487443685e+02 5.3487443685e+02 0.0000000000e+00 0.0000e+00 1.0000e+00
       -2 -1    0    0    0  501 -0.0000000000e+00 -0.0000000000e+00 -2.5048926197e+02 2.5048926197e+02 0.0000000000e+00 0.0000e+00 -1.0000e+00
      -13  1    1    2    0    0 +1.4026561243e+02 -1.2532053309e+02 -1.9467574264e+02 2.7069969120e+02 0.0000000000e+00 0.0000e+00 -1.0000e+00
       13  1    1    2    0    0 -1.4026561243e+02 +1.2532053309e+02 +4.7906091752e+02 5.1466400762e+02 0.0000000000e+00 0.0000e+00 1.0000e+00
<mgrwt>
<rscale>  0 0.73206640E+03</rscale>
<asrwt>0</asrwt>
<pdfrwt beam="1">  1        2 0.82288375E-01 0.73206640E+03</pdfrwt>
<pdfrwt beam="2">  1       -2 0.38536810E-01 0.73206640E+03</pdfrwt>
<totfact> 0.43326898E+02</totfact>
</mgrwt>
<rwgt>
<wgt id='morphing_basis_vector_1'> +3.0629728e-04 </wgt>
<wgt id='morphing_basis_vector_2'> +1.8143234e-04 </wgt>
<wgt id='morphing_basis_vector_3'> +2.6590210e-04 </wgt>
<wgt id='morphing_basis_vector_4'> +1.3801791e-04 </wgt>
<wgt id='morphing_basis_vector_5'> +2.1495384e-04 </wgt>
</rwgt>
</event>
<event>
 4      1 +5.9529000e-06 6.80036100e+02 7.81860800e-03 9.06816700e-02
        2 -1    0    0  501    0 +0.0000000000e+00 +0.0000000000e+00 +2.2192319572e+02 2.2192319572e+02 0.0000000000e+00 0.0000e+00 -1.0000e+00
       -2 -1    0    0    0  501 -0.0000000000e+00 -0.0000000000e+00 -5.2095631746e+02 5.2095631746e+02 0.0000000000e+00 0.0000e+00 1.0000e+00
      -13  1    1    2    0    0 +2.8918022699e+02 -1.4807125078e+02 -3.9937301060e+01 3.2733054701e+02 0.0000000000e+00 0.0000e+00 1.0000e+00
       13  1    1    2    0    0 -2.8918022699e+02 +1.4807125078e+02 -2.5909582068e+02 4.1554896617e+02 0.0000000000e+00 0.0000e+00 -1.0000e+00
<mgrwt>
<rscale>  0 0.68003615E+03</rscale>
<asrwt>0</asrwt>
<pdfrwt beam="1">  1        2 0.34142031E-01 0.68003615E+03</pdfrwt>
<pdfrwt beam="2">  1       -2 0.80147125E-01 0.68003615E+03</pdfrwt>
<totfact> 0.26805628E+02</totfact>
</mgrwt>
<rwgt>
<wgt id='morphing_basis_vector_1'> +2.6043174e-04 </wgt>
<wgt id='morphing_basis_vector_2'> +2.0848656e-04 </wgt>
<wgt id='morphing_basis_vector_3'> +2.0665946e-04 </wgt>
<wgt id='morphing_basis_vector_4'> +7.5391900e-05 </wgt>
<wgt id='morphing_basis_vector_5'> +1.5089158e-04 </wgt>
</rwgt>
</event>
<event>
 4      1 +5.9529000e-06 6.56065000e+02 7.81860800e-03 9.10564400e-02
        2 -1    0    0  501    0 +0.0000000000e+00 +0.0000000000e+00 +2.7788236350e+02 2.7788236350e+02 0.0000000000e+00 0.0000e+00 1.0000e+00
       -2 -1    0    0    0  501 -0.0000000000e+00 -0.0000000000e+00 -3.8723336198e+02 3.8723336198e+02 0.0000000000e+00 0.0000e+00 -1.0000e+00
      -13  1    1    2    0    0 -3.2288770075e+02 -5.6475963221e+01 -6.7471836534e+01 3.3466169551e+02 0.0000000000e+00 0.0000e+00 -1.0000e+00
       13  1    1    2    0    0 +3.2288770075e+02 +5.6475963221e+01 -4.1879161943e+01 3.3045402997e+02 0.0000000000e+00 0.0000e+00 1.0000e+00
<mgrwt>
<rscale>  0 0.65606500E+03</rscale>
<asrwt>0</asrwt>
<pdfrwt beam="1">  1        2 0.42751133E-01 0.65606500E+03</pdfrwt>
<pdfrwt beam="2">  1       -2 0.59574364E-01 0.65606500E+03</pdfrwt>
<totfact> 0.39135268E+02</totfact>
</mgrwt>
<rwgt>
<wgt id='morphing_basis_vector_1'> +2.1697506e-04 </wgt>
<wgt id='morphing_basis_vector_2'> +1.4138526e-04 </wgt>
<wgt id='morphing_basis_vector_3'> +1.7577488e-04 </wgt>
<wgt id='morphing_basis_vector_4'> +7.6880612e-05 </wgt>
<wgt id='morphing_basis_vector_5'> +1.2704887e-04 </wgt>
</rwgt>
</event>
<event>
 4      1 +5.9529000e-06 7.45198600e+02 7.81860800e-03 8.97393500e-02
        2 -1    0    0  501    0 +0.0000000000e+00 +0.0000000000e+00 +1.0882555101e+03 1.0882555101e+03 0.0000000000e+00 0.0000e+00 1.0000e+00
       -2 -1    0    0    0  501 -0.0000000000e+00 -0.0000000000e+00 -1.2757134679e+02 1.2757134679e+02 0.0000000000e+00 0.0000e+00 -1.0000e+00
      -13  1    1    2    0    0 +1.1861253633e+02 +1.8125841839e+02 -1.4279716360e+01 2.1708859554e+02 0.0000000000e+00 0.0000e+00 -1.0000e+00
       13  1    1    2    0    0 -1.1861253633e+02 -1.8125841839e+02 +9.7496387966e+02 9.9873826133e+02 0.0000000000e+00 0.0000e+00 1.0000e+00
<mgrwt>
<rscale>  0 0.74519855E+03</rscale>
<asrwt>0</asrwt>
<pdfrwt beam="1">  1        2 0.16742392E+00 0.74519855E+03</pdfrwt>
<pdfrwt beam="2">  1       -2 0.19626362E-01 0.74519855E+03</pdfrwt>
<totfact> 0.56576616E+02</totfact>
</mgrwt>
<rwgt>
<wgt id='morphing_basis_vector_1'> +3.2587326e-04 </wgt>
<wgt id='morphing_basis_vector_2'> +1.9386132e-04 </wgt>
<wgt id='morphing_basis_vector_3'> +2.8490172e-04 </wgt>
<wgt id='morphing_basis_vector_4'> +1.4967603e-04 </wgt>
<wgt id='morphing_basis_vector_5'> +2.3359531e-04 </wgt>
</rwgt>
</event>
<event>
 4      1 +5.9529000e-06 6.57278700e+02 7.81860800e-03 9.10370600e-02
        2 -1    0    0  501    0 +0.0000000000e+00 +0.0000000000e+00 +2.2080368020e+03 2.2080368020e+03 0.0000000000e+00 0.0000e+00 1.0000e+00
       -2 -1    0    0    0  501 -0.0000000000e+00 -0.0000000000e+00 -4.8913961396e+01 4.8913961396e+01 0.0000000000e+00 0.0000e+00 -1.0000e+00
      -13  1    1    2    0    0 -3.3261186668e+01 +2.9281345306e+02 +5.8009327880e+02 6.5065677353e+02 0.0000000000e+00 0.0000e+00 1.0000e+00
       13  1    1    2    0    0 +3.3261186668e+01 -2.9281345306e+02 +1.5790295618e+03 1.6062939899e+03 0.0000000000e+00 0.0000e+00 -1.0000e+00
<mgrwt>
<rscale>  0 0.65727871E+03</rscale>
<asrwt>0</asrwt>
<pdfrwt beam="1">  1        2 0.33969789E+00 0.65727871E+03</pdfrwt>
<pdfrwt beam="2">  1       -2 0.75252265E-02 0.65727871E+03</pdfrwt>
<totfact> 0.62434623E+02</totfact>
</mgrwt>
<rwgt>
<wgt id='morphing_basis_vector_1'> +2.1316460e-04 </wgt>
<wgt id='morphing_basis_vector_2'> +1.2635917e-04 </wgt>
<wgt id='morphing_basis_vector_3'> +1.7591161e-04 </wgt>
<wgt id='morphing_basis_vector_4'> +8.2408153e-05 </wgt>
<wgt id='morphing_basis_vector_5'> +1.2827515e-04 </wgt>
</rwgt>
</event>
<event>
 4      1 +5.9529000e-06 7.25687300e+02 7.81860800e-03 9.00105700e-02
        2 -1    0    0  501    0 +0.0000000000e+00 +0.0000000000e+00 +1.9580792555e+03 1.9580792555e+03 0.0000000000e+00 0.0000e+00 -1.0000e+00
       -2 -1    0    0    0  501 -0.0000000000e+00 -0.0000000000e+00 -6.7237076529e+01 6.7237076529e+01 0.0000000000e+00 0.0000e+00 1.0000e+00
      -13  1    1    2    0    0 -1.3058567773e+02 -2.5199136350e+02 +3.1451078546e+02 4.2363817189e+02 0.0000000000e+00 0.0000e+00 1.0000e+00
       13  1    1    2    0    0 +1.3058567773e+02 +2.5199136350e+02 +1.5763313935e+03 1.6016781601e+03 0.0000000000e+00 0.0000e+00 -1.0000e+00
<mgrwt>
<rscale>  0 0.72568733E+03</rscale>
<asrwt>0</asrwt>
<pdfrwt beam="1">  1        2 0.30124292E+00 0.72568733E+03</pdfrwt>
<pdfrwt beam="2">  1       -2 0.10344167E-01 0.72568733E+03</pdfrwt>
<totfact> 0.52039630E+02</totfact>
</mgrwt>
<rwgt>
<wgt id='morphing_basis_vector_1'> +2.9770312e-04 </wgt>
<wgt id='morphing_basis_vector_2'> +1.7739194e-04 </wgt>
<wgt id='morphing_basis_vector_3'> +2.5727441e-04 </wgt>
<wgt id='morphing_basis_vector_4'> +1.3196085e-04 </wgt>
<wgt id='morphing_basis_vector_5'> +2.0627292e-04 </wgt>
</rwgt>
</event>
<event>
 4      1 +5.9529000e-06 7.06228500e+02 7.81860800e-03 9.02901700e-02
        2 -1    0    0  501    0 +0.0000000000e+00 +0.0000000000e+00 +1.0379911258e+03 1.0379911258e+03 0.0000000000e+00 0.0000e+00 1.0000e+00
       -2 -1    0    0    0  501 -0.0000000000e+00 -0.0000000000e+00 -1.2012594987e+02 1.2012594987e+02 0.0000000000e+00 0.0000e+00 -1.0000e+00
      -13  1    1    2    0    0 -3.2674781157e+02 +1.2793918432e+02 +3.9422341354e+02 5.2777331027e+02 0.0000000000e+00 0.0000e+00 -1.0000e+00
       13  1    1    2    0    0 +3.2674781157e+02 -1.2793918432e+02 +5.2364176240e+02 6.3034376540e+02 0.0000000000e+00 0.0000e+00 1.0000e+00
<mgrwt>
<rscale>  0 0.70622849E+03</rscale>
<asrwt>0</asrwt>
<pdfrwt beam="1">  1        2 0.15969094E+00 0.70622849E+03</pdfrwt>
<pdfrwt beam="2">  1       -2 0.18480916E-01 0.70622849E+03</pdfrwt>
<totfact> 0.67133219E+02</totfact>
</mgrwt>
<rwgt>
<wgt id='morphing_basis_vector_1'> +2.7674988e-04 </wgt>
<wgt id='morphing_basis_vector_2'> +1.7808803e-04 </wgt>
<wgt id='morphing_basis_vector_3'> +2.3367931e-04 </wgt>
<wgt id='morphing_basis_vector_4'> +1.1034706e-04 </wgt>
<wgt id='morphing_basis_vector_5'> +1.8122495e-04 </wgt>
</rwgt>
</event>
<event>
 4      1 +5.9529000e-06 6.98671100e+02 7.81860800e-03 9.04013000e-02
        2 -1    0    0  501    0 +0.0000000000e+00 +0.0000000000e+00 +1.8338633367e+03 1.8338633367e+03 0.0000000000e+00 0.0000e+00 1.0000e+00
       -2 -1    0    0    0  501 -0.0000000000e+00 -0.0000000000e+00 -6.6545492489e+01 6.6545492489e+01 0.0000000000e+00 0.0000e+00 -1.0000e+00
      -13  1    1    2    0    0 +2.4034205985e+02 -1.8553760701e+02 +4.1373955884e+02 5.1319482840e+02 0.0000000000e+00 0.0000e+00 -1.0000e+00
       13  1    1    2    0    0 -2.4034205985e+02 +1.8553760701e+02 +1.3535782854e+03 1.3872140008e+03 0.0000000000e+00 0.0000e+00 1.0000e+00
<mgrwt>
<rscale>  0 0.69867114E+03</rscale>
<asrwt>0</asrwt>
<pdfrwt beam="1">  1        2 0.28213278E+00 0.69867114E+03</pdfrwt>
<pdfrwt beam="2">  1       -2 0.10237769E-01 0.69867114E+03</pdfrwt>
<totfact> 0.61999079E+02</totfact>
</mgrwt>
<rwgt>
<wgt id='morphing_basis_vector_1'> +2.6187211e-04 </wgt>
<wgt id='morphing_basis_vector_2'> +1.5632874e-04 </wgt>
<wgt id='morphing_basis_vector_3'> +2.2239529e-04 </wgt>
<wgt id='morphing_basis_vector_4'> +1.1008452e-04 </wgt>
<wgt id='morphing_basis_vector_5'> +1.7231247e-04 </wgt>
</rwgt>
</event>
<event>
 4      1 +5.9529000e-06 7.09679000e+02 7.81860800e-03 9.02399100e-02
        2 -1    0    0  501    0 +0.0000000000e+00 +0.0000000000e+00 +1.7266185363e+02 1.7266185363e+02 0.0000000000e+00 0.0000e+00 -1.0000e+00
       -2 -1    0    0    0  501 -0.0000000000e+00 -0.0000000000e+00 -7.2923500843e+02 7.2923500843e+02 0.0000000000e+00 0.0000e+00 1.0000e+00
      -13  1    1    2    0    0 +3.0750547400e+02 -1.7697226265e+02 -2.7106728931e+02 4.4649330748e+02 0.0000000000e+00 0.0000e+00 1.0000e+00
       13  1    1    2    0    0 -3.0750547400e+02 +1.7697226265e+02 -2.8550586550e+02 4.5540355458e+02 0.0000000000e+00 0.0000e+00 -1.0000e+00
<mgrwt>
<rscale>  0 0.70967899E+03</rscale>
<asrwt>0</asrwt>
<pdfrwt beam="1">  1        2 0.26563362E-01 0.70967899E+03</pdfrwt>
<pdfrwt beam="2">  1       -2 0.11219000E+00 0.70967899E+03</pdfrwt>
<totfact> 0.16103706E+02</totfact>
</mgrwt>
<rwgt>
<wgt id='morphing_basis_vector_1'> +2.8523364e-04 </wgt>
<wgt id='morphing_basis_vector_2'> +1.9299490e-04 </wgt>
<wgt id='morphing_basis_vector_3'> +2.3960259e-04 </wgt>
<wgt id='morphing_basis_vector_4'> +1.0876174e-04 </wgt>
<wgt id='morphing_basis_vector_5'> +1.8534919e-04 </wgt>
</rwgt>
</event>
<event>
 4      1 +5.9529000e-06 7.14169900e+02 7.81860800e-03 9.01749500e-02
        2 -1    0    0  501    0 +0.0000000000e+00 +0.0000000000e+00 +1.0690845998e+03 1.0690845998e+03 0.0000000000e+00 0.0000e+00 -1.0000e+00
       -2 -1    0    0    0  501 -0.0000000000e+00 -0.0000000000e+00 -1.1926994731e+02 1.1926994731e+02 0.0000000000e+00 0.0000e+00 1.0000e+00
      -13  1    1    2    0    0 -1.0815659485e+01 -3.3517027377e+02 +2.7075032294e+02 4.3100096088e+02 0.0000000000e+00 0.0000e+00 1.0000e+00
       13  1    1    2    0    0 +1.0815659485e+01 +3.3517027377e+02 +6.7906432956e+02 7.5735358624e+02 0.0000000000e+00 0.0000e+00 -1.0000e+00
<mgrwt>
<rscale>  0 0.71416991E+03</rscale>
<asrwt>0</asrwt>
<pdfrwt beam="1">  1        2 0.16447455E+00 0.71416991E+03</pdfrwt>
<pdfrwt beam="2">  1       -2 0.18349223E-01 0.71416991E+03</pdfrwt>
<totfact> 0.65033198E+02</totfact>
</mgrwt>
<rwgt>
<wgt id='morphing_basis_vector_1'> +2.8365221e-04 </wgt>
<wgt id='morphing_basis_vector_2'> +1.7329363e-04 </wgt>
<wgt id='morphing_basis_vector_3'> +2.4258372e-04 </wgt>
<wgt id='morphing_basis_vector_4'> +1.2046554e-04 </wgt>
<wgt id='morphing_basis_vector_5'> +1.9120970e-04 </wgt>
</rwgt>
</event>
<event>
 4      1 +5.9529000e-06 6.42376100e+02 7.81860800e-03 9.12780500e-02
        2 -1    0    0  501    0 +0.0000000000e+00 +0.0000000000e+00 +1.3534891386e+03 1.3534891386e+03 0.0000000000e+00 0.0000e+00 1.0000e+00
       -2 -1    0    0    0  501 -0.0000000000e+00 -0.0000000000e+00 -7.6219134387e+01 7.6219134387e+01 0.0000000000e+00 0.0000e+00 -1.0000e+00
      -13  1    1    2    0    0 +1.4985665896e+02 -2.1654170625e+02 +2.2936571783e+02 3.4922193702e+02 0.0000000000e+00 0.0000e+00 -1.0000e+00
       13  1    1    2    0    0 -1.4985665896e+02 +2.1654170625e+02 +1.0479042864e+03 1.0804863359e+03 0.0000000000e+00 0.0000e+00 1.0000e+00
<mgrwt>
<rscale>  0 0.64237612E+03</rscale>
<asrwt>0</asrwt>
<pdfrwt beam="1">  1        2 0.20822908E+00 0.64237612E+03</pdfrwt>
<pdfrwt beam="2">  1       -2 0.11726022E-01 0.64237612E+03</pdfrwt>
<totfact> 0.92152753E+02</totfact>
</mgrwt>
<rwgt>
<wgt id='morphing_basis_vector_1'> +1.9686785e-04 </wgt>
<wgt id='morphing_basis_vector_2'> +1.1477581e-04 </wgt>
<wgt id='morphing_basis_vector_3'> +1.6104615e-04 </wgt>
<wgt id='morphing_basis_vector_4'> +7.4403426e-05 </wgt>
<wgt id='morphing_basis_vector_5'> +1.1459150e-04 </wgt>
</rwgt>
</event>
<event>
 4      1 +5.9529000e-06 6.56228300e+02 7.81860800e-03 9.10538300e-02
        2 -1    0    0  501    0 +0.0000000000e+00 +0.0000000000e+00 +4.7687172664e+02 4.7687172664e+02 0.0000000000e+00 0.0000e+00 1.0000e+00
       -2 -1    0    0    0  501 -0.0000000000e+00 -0.0000000000e+00 -2.2576072769e+02 2.2576072769e+02 0.0000000000e+00 0.0000e+00 -1.0000e+00
      -13  1    1    2    0    0 +1.5112253140e+02 +7.7066247683e+01 -1.7516380356e+02 2.4384335978e+02 0.0000000000e+00 0.0000e+00 -1.0000e+00
       13  1    1    2    0    0 -1.5112253140e+02 -7.7066247683e+01 +4.2627480250e+02 4.5878909455e+02 0.0000000000e+00 0.0000e+00 1.0000e+00
<mgrwt>
<rscale>  0 0.65622834E+03</rscale>
<asrwt>0</asrwt>
<pdfrwt beam="1">  1        2 0.73364881E-01 0.65622834E+03</pdfrwt>
<pdfrwt beam="2">  1       -2 0.34732420E-01 0.65622834E+03</pdfrwt>
<totfact> 0.59856786E+02</totfact>
</mgrwt>
<rwgt>
<wgt id='morphing_basis_vector_1'> +2.1089106e-04 </wgt>
<wgt id='morphing_basis_vector_2'> +1.2214269e-04 </wgt>
<wgt id='morphing_basis_vector_3'> +1.7459284e-04 </wgt>
<wgt id='morphing_basis_vector_4'> +8.2848847e-05 </wgt>
<wgt id='morphing_basis_vector_5'> +1.2729013e-04 </wgt>
</rwgt>
</event>
<event>
 4      1 +5.9529000e-06 6.98421500e+02 7.81860800e-03 9.04049900e-02
        2 -1    0    0  501    0 +0.0000000000e+00 +0.0000000000e+00 +1.7287305561e+03 1.7287305561e+03 0.0000000000e+00 0.0000e+00 -1.0000e+00
       -2 -1    0    0    0  501 -0.0000000000e+00 -0.0000000000e+00 -7.0542019942e+01 7.0542019942e+01 0.0000000000e+00 0.0000e+00 1.0000e+00
      -13  1    1    2    0    0 -2.1030254918e+02 +2.4958673203e+02 +1.1490768863e+03 1.1945285219e+03 0.0000000000e+00 0.0000e+00 1.0000e+00
       13  1    1    2    0    0 +2.1030254918e+02 -2.4958673203e+02 +5.0911164983e+02 6.0474405411e+02 0.0000000000e+00 0.0000e+00 -1.0000e+00
<mgrwt>
<rscale>  0 0.69842149E+03</rscale>
<asrwt>0</asrwt>
<pdfrwt beam="1">  1        2 0.26595852E+00 0.69842149E+03</pdfrwt>
<pdfrwt beam="2">  1       -2 0.10852620E-01 0.69842149E+03</pdfrwt>
<totfact> 0.64567844E+02</totfact>
</mgrwt>
<rwgt>
<wgt id='morphing_basis_vector_1'> +2.9056416e-04 </wgt>
<wgt id='morphing_basis_vector_2'> +2.4556426e-04 </wgt>
<wgt id='morphing_basis_vector_3'> +2.3207092e-04 </wgt>
<wgt id='morphing_basis_vector_4'> +7.9511716e-05 </wgt>
<wgt id='morphing_basis_vector_5'> +1.7124142e-04 </wgt>
</rwgt>
</event>
<event>
 4      1 +5.9529000e-06 6.50818100e+02 7.81860800e-03 9.11407100e-02
        2 -1    0    0  501    0 +0.0000000000e+00 +0.0000000000e+00 +1.2701821957e+02 1.2701821957e+02 0.0000000000e+00 0.0000e+00 1.0000e+00
       -2 -1    0    0    0  501 -0.0000000000e+00 -0.0000000000e+00 -8.3366828970e+02 8.3366828970e+02 0.0000000000e+00 0.0000e+00 -1.0000e+00
      -13  1    1    2    0    0 +1.1421133673e+02 -1.1535553038e+02 -7.6963294048e+02 7.8656594822e+02 0.0000000000e+00 0.0000e+00 -1.0000e+00
       13  1    1    2    0    0 -1.1421133673e+02 +1.1535553038e+02 +6.2982870346e+01 1.7412056106e+02 0.0000000000e+00 0.0000e+00 1.0000e+00
<mgrwt>
<rscale>  0 0.65081814E+03</rscale>
<asrwt>0</asrwt>
<pdfrwt beam="1">  1        2 0.19541264E-01 0.65081814E+03</pdfrwt>
<pdfrwt beam="2">  1       -2 0.12825666E+00 0.65081814E+03</pdfrwt>
<totfact> 0.16434991E+02</totfact>
</mgrwt>
<rwgt>
<wgt id='morphing_basis_vector_1'> +2.0511222e-04 </wgt>
<wgt id='morphing_basis_vector_2'> +1.1857214e-04 </wgt>
<wgt id='morphing_basis_vector_3'> +1.6916403e-04 </wgt>
<wgt id='morphing_basis_vector_4'> +7.9663097e-05 </wgt>
<wgt id='morphing_basis_vector_5'> +1.2222065e-04 </wgt>
</rwgt>
</event>
<event>
 4      1 +5.9529000e-06 6.85345600e+02 7.81860800e-03 9.06008500e-02
        2 -1    0    0  501    0 +0.0000000000e+00 +0.0000000000e+00 +3.4679872173e+02 3.4679872173e+02 0.0000000000e+00 0.0000e+00 -1.0000e+00
       -2 -1    0    0    0  501 -0.0000000000e+00 -0.0000000000e+00 -3.3859592602e+02 3.3859592602e+02 0.0000000000e+00 0.0000e+00 1.0000e+00
      -13  1    1    2    0    0 -2.1407434123e+02 -5.0212724977e+01 -2.5873959646e+02 3.3955164570e+02 0.0000000000e+00 0.0000e+00 1.0000e+00
       13  1    1    2    0    0 +2.1407434123e+02 +5.0212724977e+01 +2.6694239218e+02 3.4584300205e+02 0.0000000000e+00 0.0000e+00 -1.0000e+00
<mgrwt>
<rscale>  0 0.68534556E+03</rscale>
<asrwt>0</asrwt>
<pdfrwt beam="1">  1        2 0.53353650E-01 0.68534556E+03</pdfrwt>
<pdfrwt beam="2">  1       -2 0.52091681E-01 0.68534556E+03</pdfrwt>
<totfact> 0.39908003E+02</totfact>
</mgrwt>
<rwgt>
<wgt id='morphing_basis_vector_1'> +2.4432353e-04 </wgt>
<wgt id='morphing_basis_vector_2'> +1.4305605e-04 </wgt>
<wgt id='morphing_basis_vector_3'> +2.0620652e-04 </wgt>
<wgt id='morphing_basis_vector_4'> +1.0153939e-04 </wgt>
<wgt id='morphing_basis_vector_5'> +1.5714839e-04 </wgt>
</rwgt>
</event>
<event>
 4      1 +5.9529000e-06 6.69437900e+02 7.81860800e-03 9.08453400e-02
        2 -1    0    0  501    0 +0.0000000000e+00 +0.0000000000e+00 +1.3269164359e+03 1.3269164359e+03 0.0000000000e+00 0.0000e+00 -1.0000e+00
       -2 -1    0    0    0  501 -0.0000000000e+00 -0.0000000000e+00 -8.4433942483e+01 8.4433942483e+01 0.0000000000e+00 0.0000e+00 1.0000e+00
      -13  1    1    2    0    0 -1.7042170443e+02 +1.9264940665e+02 +1.6966243440e+02 3.0812772168e+02 0.0000000000e+00 0.0000e+00 1.0000e+00
       13  1    1    2    0    0 +1.7042170443e+02 -1.9264940665e+02 +1.0728200591e+03 1.1032226567e+03 0.0000000000e+00 0.0000e+00 -1.0000e+00
<mgrwt>
<rscale>  0 0.66943793E+03</rscale>
<asrwt>0</asrwt>
<pdfrwt beam="1">  1        2 0.20414098E+00 0.66943793E+03</pdfrwt>
<pdfrwt beam="2">  1       -2 0.12989838E-01 0.66943793E+03</pdfrwt>
<totfact> 0.80932788E+02</totfact>
</mgrwt>
<rwgt>
<wgt id='morphing_basis_vector_1'> +2.2588983e-04 </wgt>
<wgt id='morphing_basis_vector_2'> +1.3228036e-04 </wgt>
<wgt id='morphing_basis_vector_3'> +1.8850839e-04 </wgt>
<wgt id='morphing_basis_vector_4'> +9.0680607e-05 </wgt>
<wgt id='morphing_basis_vector_5'> +1.4028121e-04 </wgt>
</rwgt>
</event>
<event>
 4      1 +5.9529000e-06 6.22810600e+02 7.81860800e-03 9.16050700e-02
        2 -1    0    0  501    0 +0.0000000000e+00 +0.0000000000e+00 +8.2174533060e+01 8.2174533060e+01 0.0000000000e+00 0.0000e+00 -1.0000e+00
       -2 -1    0    0    0  501 -0.0000000000e+00 -0.0000000000e+00 -1.1800889989e+03 1.1800889989e+03 0.0000000000e+00 0.0000e+00 1.0000e+00
      -13  1    1    2    0    0 +1.2190658772e+02 +2.8642711897e+02 -5.6610092851e+02 6.4604332042e+02 0.0000000000e+00 0.0000e+00 1.0000e+00
       13  1    1    2    0    0 -1.2190658772e+02 -2.8642711897e+02 -5.3181353729e+02 6.1622021150e+02 0.0000000000e+00 0.0000e+00 -1.0000e+00
<mgrwt>
<rscale>  0 0.62281061E+03</rscale>
<asrwt>0</asrwt>
<pdfrwt beam="1">  1        2 0.12642237E-01 0.62281061E+03</pdfrwt>
<pdfrwt beam="2">  1       -2 0.18155214E+00 0.62281061E+03</pdfrwt>
<totfact> 0.10341626E+02</totfact>
</mgrwt>
<rwgt>
<wgt id='morphing_basis_vector_1'> +1.8267842e-04 </wgt>
<wgt id='morphing_basis_vector_2'> +1.1841582e-04 </wgt>
<wgt id='morphing_basis_vector_3'> +1.4370148e-04 </wgt>
<wgt id='morphing_basis_vector_4'> +5.9946965e-05 </wgt>
<wgt id='morphing_basis_vector_5'> +9.8202324e-05 </wgt>
</rwgt>
</event>
<event>
 4      1 +5.9529000e-06 7.26011300e+02 7.81860800e-03 9.00059900e-02
        2 -1    0    0  501    0 +0.0000000000e+00 +0.0000000000e+00 +5.7400610834e+02 5.7400610834e+02 0.0000000000e+00 0.0000e+00 -1.0000e+00
       -2 -1    0    0    0  501 -0.0000000000e+00 -0.0000000000e+00 -2.2956743434e+02 2.2956743434e+02 0.0000000000e+00 0.0000e+00 1.0000e+00
      -13  1    1    2    0    0 +1.6794455429e+02 +5.6498608404e+01 -1.7844888207e+02 2.5147856684e+02 0.0000000000e+00 0.0000e+00 1.0000e+00
       13  1    1    2    0    0 -1.6794455429e+02 -5.6498608404e+01 +5.2288755607e+02 5.5209497585e+02 0.0000000000e+00 0.0000e+00 -1.0000e+00
<mgrwt>
<rscale>  0 0.72601132E+03</rscale>
<asrwt>0</asrwt>
<pdfrwt beam="1">  1        2 0.88308632E-01 0.72601132E+03</pdfrwt>
<pdfrwt beam="2">  1       -2 0.35318067E-01 0.72601132E+03</pdfrwt>
<totfact> 0.46840665E+02</totfact>
</mgrwt>
<rwgt>
<wgt id='morphing_basis_vector_1'> +2.9760062e-04 </wgt>
<wgt id='morphing_basis_vector_2'> +1.7595123e-04 </wgt>
<wgt id='morphing_basis_vector_3'> +2.5748333e-04 </wgt>
<wgt id='morphing_basis_vector_4'> +1.3285787e-04 </wgt>
<wgt id='morphing_basis_vector_5'> +2.0672621e-04 </wgt>
</rwgt>
</event>
<event>
 4      1 +5.9529000e-06 6.95417100e+02 7.81860800e-03 9.04496000e-02
        2 -1    0    0  501    0 +0.0000000000e+00 +0.0000000000e+00 +9.9022110731e+02 9.9022110731e+02 0.0000000000e+00 0.0000e+00 -1.0000e+00
       -2 -1    0    0    0  501 -0.0000000000e+00 -0.0000000000e+00 -1.2209520062e+02 1.2209520062e+02 0.0000000000e+00 0.0000e+00 1.0000e+00
      -13  1    1    2    0    0 +3.6030717815e+01 -3.4572260807e+02 +4.4827151270e+02 5.6724746227e+02 0.0000000000e+00 0.0000e+00 1.0000e+00
       13  1    1    2    0    0 -3.6030717815e+01 +3.4572260807e+02 +4.1985439399e+02 5.4506884566e+02 0.0000000000e+00 0.0000e+00 -1.0000e+00
<mgrwt>
<rscale>  0 0.69541713E+03</rscale>
<asrwt>0</asrwt>
<pdfrwt beam="1">  1        2 0.15234170E+00 0.69541713E+03</pdfrwt>
<pdfrwt beam="2">  1       -2 0.18783878E-01 0.69541713E+03</pdfrwt>
<totfact> 0.69943149E+02</totfact>
</mgrwt>
<rwgt>
<wgt id='morphing_basis_vector_1'> +2.6637309e-04 </wgt>
<wgt id='morphing_basis_vector_2'> +1.8037333e-04 </wgt>
<wgt id='morphing_basis_vector_3'> +2.2132522e-04 </wgt>
<wgt id='morphing_basis_vector_4'> +9.8723798e-05 </wgt>
<wgt id='morphing_basis_vector_5'> +1.6828857e-04 </wgt>
</rwgt>
</event>
<event>
 4      1 +5.9529000e-06 7.31022000e+02 7.81860800e-03 8.99355200e-02
        2 -1    0    0  501    0 +0.0000000000e+00 +0.0000000000e+00 +6.4565280833e+02 6.4565280833e+02 0.0000000000e+00 0.0000e+00 -1.0000e+00
       -2 -1    0    0    0  501 -0.0000000000e+00 -0.0000000000e+00 -2.0691969461e+02 2.0691969461e+02 0.0000000000e+00 0.0000e+00 1.0000e+00
      -13  1    1    2    0    0 +2.2479641250e+02 -2.3904541416e+02 +3.1592168613e+01 3.2965770463e+02 0.0000000000e+00 0.0000e+00 1.0000e+00
       13  1    1    2    0    0 -2.2479641250e+02 +2.3904541416e+02 +4.0714094511e+02 5.2291479831e+02 0.0000000000e+00 0.0000e+00 -1.0000e+00
<mgrwt>
<rscale>  0 0.73102197E+03</rscale>
<asrwt>0</asrwt>
<pdfrwt beam="1">  1        2 0.99331200E-01 0.73102197E+03</pdfrwt>
<pdfrwt beam="2">  1       -2 0.31833800E-01 0.73102197E+03</pdfrwt>
<totfact> 0.49119771E+02</totfact>
</mgrwt>
<rwgt>
<wgt id='morphing_basis_vector_1'> +3.0646257e-04 </wgt>
<wgt id='morphing_basis_vector_2'> +1.8564376e-04 </wgt>
<wgt id='morphing_basis_vector_3'> +2.6516250e-04 </wgt>
<wgt id='morphing_basis_vector_4'> +1.3523109e-04 </wgt>
<wgt id='morphing_basis_vector_5'> +2.1345764e-04 </wgt>
</rwgt>
</event>
<event>
 4      1 +5.9529000e-06 6.70632600e+02 7.81860800e-03 9.08267400e-02
        2 -1    0    0  501    0 +0.0000000000e+00 +0.0000000000e+00 +5.5845923398e+02 5.5845923398e+02 0.0000000000e+00 0.0000e+00 -1.0000e+00
       -2 -1    0    0    0  501 -0.0000000000e+00 -0.0000000000e+00 -2.0133434840e+02 2.0133434840e+02 0.0000000000e+00 0.0000e+00 1.0000e+00
      -13  1    1    2    0    0 -3.2123198034e+02 -6.9819425610e+01 +2.5347685228e+02 4.1510872313e+02 0.0000000000e+00 0.0000e+00 -1.0000e+00
       13  1    1    2    0    0 +3.2123198034e+02 +6.9819425610e+01 +1.0364803330e+02 3.4468485924e+02 0.0000000000e+00 0.0000e+00 1.0000e+00
<mgrwt>
<rscale>  0 0.67063261E+03</rscale>
<asrwt>0</asrwt>
<pdfrwt beam="1">  1        2 0.85916805E-01 0.67063261E+03</pdfrwt>
<pdfrwt beam="2">  1       -2 0.30974515E-01 0.67063261E+03</pdfrwt>
<totfact> 0.61270406E+02</totfact>
</mgrwt>
<rwgt>
<wgt id='morphing_basis_vector_1'> +2.4244729e-04 </wgt>
<wgt id='morphing_basis_vector_2'> +1.8004819e-04 </wgt>
<wgt id='morphing_basis_vector_3'> +1.9377176e-04 </wgt>
<wgt id='morphing_basis_vector_4'> +7.6601812e-05 </wgt>
<wgt id='morphing_basis_vector_5'> +1.4122201e-04 </wgt>
</rwgt>
</event>
<event>
 4      1 +5.9529000e-06 7.44033100e+02 7.81860800e-03 8.97553000e-02
        2 -1    0    0  501    0 +0.0000000000e+00 +0.0000000000e+00 +7.2677772051e+02 7.2677772051e+02 0.0000000000e+00 0.0000e+00 -1.0000e+00
       -2 -1    0    0    0  501 -0.0000000000e+00 -0.0000000000e+00 -1.9042451566e+02 1.9042451566e+02 0.0000000000e+00 0.0000e+00 1.0000e+00
      -13  1    1    2    0    0 +2.2704469784e+02 -1.7018246994e+02 -2.8412796315e+01 2.8516425949e+02 0.0000000000e+00 0.0000e+00 1.0000e+00
       13  1    1    2    0    0 -2.2704469784e+02 +1.7018246994e+02 +5.6476600117e+02 6.3203797668e+02 0.0000000000e+00 0.0000e+00 -1.0000e+00
<mgrwt>
<rscale>  0 0.74403305E+03</rscale>
<asrwt>0</asrwt>
<pdfrwt beam="1">  1        2 0.11181196E+00 0.74403305E+03</pdfrwt>
<pdfrwt beam="2">  1       -2 0.29296080E-01 0.74403305E+03</pdfrwt>
<totfact> 0.49248946E+02</totfact>
</mgrwt>
<rwgt>
<wgt id='morphing_basis_vector_1'> +3.2454368e-04 </wgt>
<wgt id='morphing_basis_vector_2'> +1.9410469e-04 </wgt>
<wgt id='morphing_basis_vector_3'> +2.8338269e-04 </wgt>
<wgt id='morphing_basis_vector_4'> +1.4809916e-04 </wgt>
<wgt id='morphing_basis_vector_5'> +2.3187817e-04 </wgt>
</rwgt>
</event>
<event>
 4      1 +5.9529000e-06 7.15356100e+02 7.81860800e-03 9.01578700e-02
        2 -1    0    0  501    0 +0.0000000000e+00 +0.0000000000e+00 +9.9350220319e+02 9.9350220319e+02 0.0000000000e+00 0.0000e+00 -1.0000e+00
       -2 -1    0    0    0  501 -0.0000000000e+00 -0.0000000000e+00 -1.2877030989e+02 1.2877030989e+02 0.0000000000e+00 0.0000e+00 1.0000e+00
      -13  1    1    2    0    0 +2.9352487867e+02 +1.1696987452e+02 +6.9532544685e+02 7.6375145367e+02 0.0000000000e+00 0.0000e+00 -1.0000e+00
       13  1    1    2    0    0 -2.9352487867e+02 -1.1696987452e+02 +1.6940644645e+02 3.5852105941e+02 0.0000000000e+00 0.0000e+00 1.0000e+00
<mgrwt>
<rscale>  0 0.71535610E+03</rscale>
<asrwt>0</asrwt>
<pdfrwt beam="1">  1        2 0.15284649E+00 0.71535610E+03</pdfrwt>
<pdfrwt beam="2">  1       -2 0.19810818E-01 0.71535610E+03</pdfrwt>
<totfact> 0.63681725E+02</totfact>
</mgrwt>
<rwgt>
<wgt id='morphing_basis_vector_1'> +3.2869218e-04 </wgt>
<wgt id='morphing_basis_vector_2'> +3.0802956e-04 </wgt>
<wgt id='morphing_basis_vector_3'> +2.6114204e-04 </wgt>
<wgt id='morphing_basis_vector_4'> +7.4167874e-05 </wgt>
<wgt id='morphing_basis_vector_5'> +1.9133958e-04 </wgt>
</rwgt>
</event>
<event>
 4      1 +5.9529000e-06 6.32549400e+02 7.81860800e-03 9.14407400e-02
        2 -1    0    0  501    0 +0.0000000000e+00 +0.0000000000e+00 +9.9703742421e+02 9.9703742421e+02 0.0000000000e+00 0.0000e+00 -1.0000e+00
       -2 -1    0    0    0  501 -0.0000000000e+00 -0.0000000000e+00 -1.0032691989e+02 1.0032691989e+02 0.0000000000e+00 0.0000e+00 1.0000e+00
      -13  1    1    2    0    0 +1.9306100112e+02 +1.8169293825e+02 +1.4915493413e+02 3.0419084197e+02 0.0000000000e+00 0.0000e+00 1.0000e+00
       13  1    1    2    0    0 -1.9306100112e+02 -1.8169293825e+02 +7.4755557019e+02 7.9317350213e+02 0.0000000000e+00 0.0000e+00 -1.0000e+00
<mgrwt>
<rscale>  0 0.63254943E+03</rscale>
<asrwt>0</asrwt>
<pdfrwt beam="1">  1        2 0.15339037E+00 0.63254943E+03</pdfrwt>
<pdfrwt beam="2">  1       -2 0.15434911E-01 0.63254943E+03</pdfrwt>
<totfact> 0.95692858E+02</totfact>
</mgrwt>
<rwgt>
<wgt id='morphing_basis_vector_1'> +1.8712001e-04 </wgt>
<wgt id='morphing_basis_vector_2'> +1.0896577e-04 </wgt>
<wgt id='morphing_basis_vector_3'> +1.5188305e-04 </wgt>
<wgt id='morphing_basis_vector_4'> +6.9042889e-05 </wgt>
<wgt id='morphing_basis_vector_5'> +1.0614566e-04 </wgt>
</rwgt>
</event>
<event>
 4      1 +5.9529000e-06 6.27641600e+02 7.81860800e-03 9.15231600e-02
        2 -1    0    0  501    0 +0.0000000000e+00 +0.0000000000e+00 +2.5634958872e+02 2.5634958872e+02 0.0000000000e+00 0.0000e+00 1.0000e+00
       -2 -1    0    0    0  501 -0.0000000000e+00 -0.0000000000e+00 -3.8417646758e+02 3.8417646758e+02 0.0000000000e+00 0.0000e+00 -1.0000e+00
      -13  1    1    2    0    0 +2.6767836834e+02 +7.6705238986e+01 -2.1161911841e+02 3.4973998033e+02 0.0000000000e+00 0.0000e+00 -1.0000e+00
       13  1    1    2    0    0 -2.6767836834e+02 -7.6705238986e+01 +8.3792239550e+01 2.9078607597e+02 0.0000000000e+00 0.0000e+00 1.0000e+00
<mgrwt>
<rscale>  0 0.62764155E+03</rscale>
<asrwt>0</asrwt>
<pdfrwt beam="1">  1        2 0.39438399E-01 0.62764155E+03</pdfrwt>
<pdfrwt beam="2">  1       -2 0.59104072E-01 0.62764155E+03</pdfrwt>
<totfact> 0.43607217E+02</totfact>
</mgrwt>
<rwgt>
<wgt id='morphing_basis_vector_1'> +1.8268687e-04 </wgt>
<wgt id='morphing_basis_vector_2'> +1.0704757e-04 </wgt>
<wgt id='morphing_basis_vector_3'> +1.4749471e-04 </wgt>
<wgt id='morphing_basis_vector_4'> +6.6227611e-05 </wgt>
<wgt id='morphing_basis_vector_5'> +1.0209430e-04 </wgt>
</rwgt>
</event>
<event>
 4      1 +5.9529000e-06 6.25651000e+02 7.81860800e-03 9.15568100e-02
        2 -1    0    0  501    0 +0.0000000000e+00 +0.0000000000e+00 +6.6312569472e+02 6.6312569472e+02 0.0000000000e+00 0.0000e+00 -1.0000e+00
       -2 -1    0    0    0  501 -0.0000000000e+00 -0.0000000000e+00 -1.4757352551e+02 1.4757352551e+02 0.0000000000e+00 0.0000e+00 1.0000e+00
      -13  1    1    2    0    0 +1.2854894575e+02 +2.7633377191e+02 +1.6638429168e+02 3.4723035217e+02 0.0000000000e+00 0.0000e+00 1.0000e+00
       13  1    1    2    0    0 -1.2854894575e+02 -2.7633377191e+02 +3.4916787753e+02 4.6346886805e+02 0.0000000000e+00 0.0000e+00 -1.0000e+00
<mgrwt>
<rscale>  0 0.62565101E+03</rscale>
<asrwt>0</asrwt>
<pdfrwt beam="1">  1        2 0.10201934E+00 0.62565101E+03</pdfrwt>
<pdfrwt beam="2">  1       -2 0.22703620E-01 0.62565101E+03</pdfrwt>
<totfact> 0.85652344E+02</totfact>
</mgrwt>
<rwgt>
<wgt id='morphing_basis_vector_1'> +1.8247537e-04 </wgt>
<wgt id='morphing_basis_vector_2'> +1.1111447e-04 </wgt>
<wgt id='morphing_basis_vector_3'> +1.4591664e-04 </wgt>
<wgt id='morphing_basis_vector_4'> +6.3782796e-05 </wgt>
<wgt id='morphing_basis_vector_5'> +1.0047685e-04 </wgt>
</rwgt>
</event>
<event>
 4      1 +5.9529000e-06 6.90153300e+02 7.81860800e-03 9.05283100e-02
        2 -1    0    0  501    0 +0.0000000000e+00 +0.0000000000e+00 +1.7818779477e+03 1.7818779477e+03 0.0000000000e+00 0.0000e+00 -1.0000e+00
       -2 -1    0    0    0  501 -0.0000000000e+00 -0.0000000000e+00 -6.6827185988e+01 6.6827185988e+01 0.0000000000e+00 0.0000e+00 1.0000e+00
      -13  1    1    2    0    0 +2.2306023609e+02 -1.2421586984e+02 +2.3567485984e+02 3.4745948081e+02 0.0000000000e+00 0.0000e+00 1.0000e+00
       13  1    1    2    0    0 -2.2306023609e+02 +1.2421586984e+02 +1.4793759019e+03 1.5012456529e+03 0.0000000000e+00 0.0000e+00 -1.0000e+00
<mgrwt>
<rscale>  0 0.69015328E+03</rscale>
<asrwt>0</asrwt>
<pdfrwt beam="1">  1        2 0.27413503E+00 0.69015328E+03</pdfrwt>
<pdfrwt beam="2">  1       -2 0.10281107E-01 0.69015328E+03</pdfrwt>
<totfact> 0.65791399E+02</totfact>
</mgrwt>
<rwgt>
<wgt id='morphing_basis_vector_1'> +2.5040893e-04 </wgt>
<wgt id='morphing_basis_vector_2'> +1.4732794e-04 </wgt>
<wgt id='morphing_basis_vector_3'> +2.1188715e-04 </wgt>
<wgt id='morphing_basis_vector_4'> +1.0470838e-04 </wgt>
<wgt id='morphing_basis_vector_5'> +1.6250957e-04 </wgt>
</rwgt>
</event>
<event>
 4      1 +5.9529000e-06 6.49466500e+02 7.81860800e-03 9.11625500e-02
        2 -1    0    0  501    0 +0.0000000000e+00 +0.0000000000e+00 +1.1810947447e+03 1.1810947447e+03 0.0000000000e+00 0.0000e+00 -1.0000e+00
       -2 -1    0    0    0  501 -0.0000000000e+00 -0.0000000000e+00 -8.9282997836e+01 8.9282997836e+01 0.0000000000e+00 0.0000e+00 1.0000e+00
      -13  1    1    2    0    0 -2.1110531037e+01 +3.0777553049e+02 +7.4423108332e+02 8.0563722423e+02 0.0000000000e+00 0.0000e+00 1.0000e+00
       13  1    1    2    0    0 +2.1110531037e+01 -3.0777553049e+02 +3.4758066358e+02 4.6474051834e+02 0.0000000000e+00 0.0000e+00 -1.0000e+00
<mgrwt>
<rscale>  0 0.64946649E+03</rscale>
<asrwt>0</asrwt>
<pdfrwt beam="1">  1        2 0.18170687E+00 0.64946649E+03</pdfrwt>
<pdfrwt beam="2">  1       -2 0.13735847E-01 0.64946649E+03</pdfrwt>
<totfact> 0.89666427E+02</totfact>
</mgrwt>
<rwgt>
<wgt id='morphing_basis_vector_1'> +2.2404486e-04 </wgt>
<wgt id='morphing_basis_vector_2'> +1.8064319e-04 </wgt>
<wgt id='morphing_basis_vector_3'> +1.7177402e-04 </wgt>
<wgt id='morphing_basis_vector_4'> +6.0164843e-05 </wgt>
<wgt id='morphing_basis_vector_5'> +1.2073997e-04 </wgt>
</rwgt>
</event>
<event>
 4      1 +5.9529000e-06 7.27658000e+02 7.81860800e-03 8.99827600e-02
        2 -1    0    0  501    0 +0.0000000000e+00 +0.0000000000e+00 +1.1520909558e+03 1.1520909558e+03 0.0000000000e+00 0.0000e+00 -1.0000e+00
       -2 -1    0    0    0  501 -0.0000000000e+00 -0.0000000000e+00 -1.1489679584e+02 1.1489679584e+02 0.0000000000e+00 0.0000e+00 1.0000e+00
      -13  1    1    2    0    0 +3.4975324273e+02 +9.7796423015e+01 +5.5674805018e+02 6.6472540386e+02 0.0000000000e+00 0.0000e+00 1.0000e+00
       13  1    1    2    0    0 -3.4975324273e+02 -9.7796423015e+01 +4.8044610981e+02 6.0226234781e+02 0.0000000000e+00 0.0000e+00 -1.0000e+00
<mgrwt>
<rscale>  0 0.72765805E+03</rscale>
<asrwt>0</asrwt>
<pdfrwt beam="1">  1        2 0.17724475E+00 0.72765805E+03</pdfrwt>
<pdfrwt beam="2">  1       -2 0.17676431E-01 0.72765805E+03</pdfrwt>
<totfact> 0.61717667E+02</totfact>
</mgrwt>
<rwgt>
<wgt id='morphing_basis_vector_1'> +3.1285694e-04 </wgt>
<wgt id='morphing_basis_vector_2'> +2.1715271e-04 </wgt>
<wgt id='morphing_basis_vector_3'> +2.6523070e-04 </wgt>
<wgt id='morphing_basis_vector_4'> +1.1984109e-04 </wgt>
<wgt id='morphing_basis_vector_5'> +2.0848679e-04 </wgt>
</rwgt>
</event>
<event>
 4      1 +5.9529000e-06 7.26341800e+02 7.81860800e-03 9.00013200e-02
        2 -1    0    0  501    0 +0.0000000000e+00 +0.0000000000e+00 +2.0660760471e+03 2.0660760471e+03 0.0000000000e+00 0.0000e+00 -1.0000e+00
       -2 -1    0    0    0  501 -0.0000000000e+00 -0.0000000000e+00 -6.3837483837e+01 6.3837483837e+01 0.0000000000e+00 0.0000e+00 1.0000e+00
      -13  1    1    2    0    0 +3.5158299545e+02 +9.0988260038e+01 +9.9553225643e+02 1.0597046474e+03 0.0000000000e+00 0.0000e+00 1.0000e+00
       13  1    1    2    0    0 -3.5158299545e+02 -9.0988260038e+01 +1.0067063068e+03 1.0702088835e+03 0.0000000000e+00 0.0000e+00 -1.0000e+00
<mgrwt>
<rscale>  0 0.72634178E+03</rscale>
<asrwt>0</asrwt>
<pdfrwt beam="1">  1        2 0.31785780E+00 0.72634178E+03</pdfrwt>
<pdfrwt beam="2">  1       -2 0.98211529E-02 0.72634178E+03</pdfrwt>
<totfact> 0.49220242E+02</totfact>
</mgrwt>
<rwgt>
<wgt id='morphing_basis_vector_1'> +3.0820913e-04 </wgt>
<wgt id='morphing_basis_vector_2'> +2.0744541e-04 </wgt>
<wgt id='morphing_basis_vector_3'> +2.6220453e-04 </wgt>
<wgt id='morphing_basis_vector_4'> +1.2185255e-04 </wgt>
<wgt id='morphing_basis_vector_5'> +2.0681625e-04 </wgt>
</rwgt>
</event>
<event>
 4      1 +5.9529000e-06 6.53708900e+02 7.81860800e-03 9.10941800e-02
        2 -1    0    0  501    0 +0.0000000000e+00 +0.0000000000e+00 +2.6985520308e+02 2.6985520308e+02 0.0000000000e+00 0.0000e+00 -1.0000e+00
       -2 -1    0    0    0  501 -0.0000000000e+00 -0.0000000000e+00 -3.9589314312e+02 3.9589314312e+02 0.0000000000e+00 0.0000e+00 1.0000e+00
      -13  1    1    2    0    0 +1.9641945341e+02 -2.4517194593e+02 -1.5492478481e+02 3.5027356979e+02 0.0000000000e+00 0.0000e+00 1.0000e+00
       13  1    1    2    0    0 -1.9641945341e+02 +2.4517194593e+02 +2.8886844769e+01 3.1547477641e+02 0.0000000000e+00 0.0000e+00 -1.0000e+00
<mgrwt>
<rscale>  0 0.65370888E+03</rscale>
<asrwt>0</asrwt>
<pdfrwt beam="1">  1        2 0.41516185E-01 0.65370888E+03</pdfrwt>
<pdfrwt beam="2">  1       -2 0.60906637E-01 0.65370888E+03</pdfrwt>
<totfact> 0.38666672E+02</totfact>
</mgrwt>
<rwgt>
<wgt id='morphing_basis_vector_1'> +2.1060555e-04 </wgt>
<wgt id='morphing_basis_vector_2'> +1.2795584e-04 </wgt>
<wgt id='morphing_basis_vector_3'> +1.7255095e-04 </wgt>
<wgt id='morphing_basis_vector_4'> +7.9098921e-05 </wgt>
<wgt id='morphing_basis_vector_5'> +1.2487984e-04 </wgt>
</rwgt>
</event>
<event>
 4      1 +5.9529000e-06 7.19432800e+02 7.81860800e-03 9.00994400e-02
        2 -1    0    0  501    0 +0.0000000000e+00 +0.0000000000e+00 +1.6658276222e+03 1.6658276222e+03 0.0000000000e+00 0.0000e+00 1.0000e+00
       -2 -1    0    0    0  501 -0.0000000000e+00 -0.0000000000e+00 -7.7676642987e+01 7.7676642987e+01 0.0000000000e+00 0.0000e+00 -1.0000e+00
      -13  1    1    2    0    0 +3.5150907582e+02 -3.0413995650e+01 +9.6392850441e+02 1.0264705564e+03 0.0000000000e+00 0.0000e+00 -1.0000e+00
       13  1    1    2    0    0 -3.5150907582e+02 +3.0413995650e+01 +6.2422247482e+02 7.1703370882e+02 0.0000000000e+00 0.0000e+00 1.0000e+00
<mgrwt>
<rscale>  0 0.71943283E+03</rscale>
<asrwt>0</asrwt>
<pdfrwt beam="1">  1        2 0.25628115E+00 0.71943283E+03</pdfrwt>
<pdfrwt beam="2">  1       -2 0.11950254E-01 0.71943283E+03</pdfrwt>
<totfact> 0.59927613E+02</totfact>
</mgrwt>
<rwgt>
<wgt id='morphing_basis_vector_1'> +3.0816582e-04 </wgt>
<wgt id='morphing_basis_vector_2'> +2.3107313e-04 </wgt>
<wgt id='morphing_basis_vector_3'> +2.5653618e-04 </wgt>
<wgt id='morphing_basis_vector_4'> +1.0569716e-04 </wgt>
<wgt id='morphing_basis_vector_5'> +1.9739354e-04 </wgt>
</rwgt>
</event>
<event>
 4      1 +5.9529000e-06 6.49910000e+02 7.81860800e-03 9.11553800e-02
        2 -1    0    0  501    0 +0.0000000000e+00 +0.0000000000e+00 +4.0723796885e+02 4.0723796885e+02 0.0000000000e+00 0.0000e+00 -1.0000e+00
       -2 -1    0    0    0  501 -0.0000000000e+00 -0.0000000000e+00 -2.5929738259e+02 2.5929738259e+02 0.0000000000e+00 0.0000e+00 1.0000e+00
      -13  1    1    2    0    0 -1.8723005883e+02 -2.0091589162e+02 -1.0417833093e+02 2.9372676941e+02 0.0000000000e+00 0.0000e+00 1.0000e+00
       13  1    1    2    0    0 +1.8723005883e+02 +2.0091589162e+02 +2.5211891719e+02 3.7280858203e+02 0.0000000000e+00 0.0000e+00 -1.0000e+00
<mgrwt>
<rscale>  0 0.64990996E+03</rscale>
<asrwt>0</asrwt>
<pdfrwt beam="1">  1        2 0.62651995E-01 0.64990996E+03</pdfrwt>
<pdfrwt beam="2">  1       -2 0.39891905E-01 0.64990996E+03</pdfrwt>
<totfact> 0.55525995E+02</totfact>
</mgrwt>
<rwgt>
<wgt id='morphing_basis_vector_1'> +2.0482363e-04 </wgt>
<wgt id='morphing_basis_vector_2'> +1.2004965e-04 </wgt>
<wgt id='morphing_basis_vector_3'> +1.6839645e-04 </wgt>
<wgt id='morphing_basis_vector_4'> +7.8521279e-05 </wgt>
<wgt id='morphing_basis_vector_5'> +1.2137595e-04 </wgt>
</rwgt>
</event>
<event>
 4      1 +5.9529000e-06 6.63173700e+02 7.81860800e-03 9.09435800e-02
        2 -1    0    0  501    0 +0.0000000000e+00 +0.0000000000e+00 +8.9782663454e+02 8.9782663454e+02 0.0000000000e+00 0.0000e+00 1.0000e+00
       -2 -1    0    0    0  501 -0.0000000000e+00 -0.0000000000e+00 -1.2246223026e+02 1.2246223026e+02 0.0000000000e+00 0.0000e+00 -1.0000e+00
      -13  1    1    2    0    0 +1.8404943204e+02 -2.6222271745e+02 +2.5609908399e+02 4.1014837292e+02 0.0000000000e+00 0.0000e+00 -1.0000e+00
       13  1    1    2    0    0 -1.8404943204e+02 +2.6222271745e+02 +5.1926532029e+02 6.1014049189e+02 0.0000000000e+00 0.0000e+00 1.0000e+00
<mgrwt>
<rscale>  0 0.66317374E+03</rscale>
<asrwt>0</asrwt>
<pdfrwt beam="1">  1        2 0.13812717E+00 0.66317374E+03</pdfrwt>
<pdfrwt beam="2">  1       -2 0.18840344E-01 0.66317374E+03</pdfrwt>
<totfact> 0.79724674E+02</totfact>
</mgrwt>
<rwgt>
<wgt id='morphing_basis_vector_1'> +2.2123580e-04 </wgt>
<wgt id='morphing_basis_vector_2'> +1.3530719e-04 </wgt>
<wgt id='morphing_basis_vector_3'> +1.8241187e-04 </wgt>
<wgt id='morphing_basis_vector_4'> +8.4453480e-05 </wgt>
<wgt id='morphing_basis_vector_5'> +1.3396901e-04 </wgt>
</rwgt>
</event>
<event>
 4      1 +5.9529000e-06 6.37636700e+02 7.81860800e-03 9.13561300e-02
        2 -1    0    0  501    0 +0.0000000000e+00 +0.0000000000e+00 +3.2227939579e+02 3.2227939579e+02 0.0000000000e+00 0.0000e+00 1.0000e+00
       -2 -1    0    0    0  501 -0.0000000000e+00 -0.0000000000e+00 -3.1539449139e+02 3.1539449139e+02 0.0000000000e+00 0.0000e+00 -1.0000e+00
      -13  1    1    2    0    0 -1.4613818312e+02 +1.3093828550e+02 +2.5474168557e+02 3.2155019755e+02 0.0000000000e+00 0.0000e+00 1.0000e+00
       13  1    1    2    0    0 +1.4613818312e+02 -1.3093828550e+02 -2.4785678117e+02 3.1612368963e+02 0.0000000000e+00 0.0000e+00 -1.0000e+00
<mgrwt>
<rscale>  0 0.63763672E+03</rscale>
<asrwt>0</asrwt>
<pdfrwt beam="1">  1        2 0.49581445E-01 0.63763672E+03</pdfrwt>
<pdfrwt beam="2">  1       -2 0.48522230E-01 0.63763672E+03</pdfrwt>
<totfact> 0.49849674E+02</totfact>
</mgrwt>
<rwgt>
<wgt id='morphing_basis_vector_1'> +2.5266763e-04 </wgt>
<wgt id='morphing_basis_vector_2'> +2.9931948e-04 </wgt>
<wgt id='morphing_basis_vector_3'> +1.6591645e-04 </wgt>
<wgt id='morphing_basis_vector_4'> +1.8152128e-05 </wgt>
<wgt id='morphing_basis_vector_5'> +1.0999130e-04 </wgt>
</rwgt>
</event>
<event>
 4      1 +5.9529000e-06 6.33816000e+02 7.81860800e-03 9.14196000e-02
        2 -1    0    0  501    0 +0.0000000000e+00 +0.0000000000e+00 +8.1605162724e+02 8.1605162724e+02 0.0000000000e+00 0.0000e+00 -1.0000e+00
       -2 -1    0    0    0  501 -0.0000000000e+00 -0.0000000000e+00 -1.2306902211e+02 1.2306902211e+02 0.0000000000e+00 0.0000e+00 1.0000e+00
      -13  1    1    2    0    0 +1.1749429011e+02 +1.2150516575e+02 -5.0708152681e+01 1.7646452975e+02 0.0000000000e+00 0.0000e+00 1.0000e+00
       13  1    1    2    0    0 -1.1749429011e+02 -1.2150516575e+02 +7.4369075781e+02 7.6265611960e+02 0.0000000000e+00 0.0000e+00 -1.0000e+00
<mgrwt>
<rscale>  0 0.63381599E+03</rscale>
<asrwt>0</asrwt>
<pdfrwt beam="1">  1        2 0.12554640E+00 0.63381599E+03</pdfrwt>
<pdfrwt beam="2">  1       -2 0.18933696E-01 0.63381599E+03</pdfrwt>
<totfact> 0.89688854E+02</totfact>
</mgrwt>
<rwgt>
<wgt id='morphing_basis_vector_1'> +1.8780484e-04 </wgt>
<wgt id='morphing_basis_vector_2'> +1.0800043e-04 </wgt>
<wgt id='morphing_basis_vector_3'> +1.5296333e-04 </wgt>
<wgt id='morphing_basis_vector_4'> +7.0197834e-05 </wgt>
<wgt id='morphing_basis_vector_5'> +1.0721243e-04 </wgt>
</rwgt>
</event>
<event>
 4      1 +5.9529000e-06 7.48935200e+02 7.81860800e-03 8.96884100e-02
        2 -1    0    0  501    0 +0.0000000000e+00 +0.0000000000e+00 +3.6402662730e+02 3.6402662730e+02 0.0000000000e+00 0.0000e+00 1.0000e+00
       -2 -1    0    0    0  501 -0.0000000000e+00 -0.0000000000e+00 -3.8520808937e+02 3.8520808937e+02 0.0000000000e+00 0.0000e+00 -1.0000e+00
      -13  1    1    2    0    0 +2.4509771596e+00 +3.5965755858e+02 +9.3693144330e+01 3.7166917014e+02 0.0000000000e+00 0.0000e+00 -1.0000e+00
       13  1    1    2    0    0 -2.4509771596e+00 -3.5965755858e+02 -1.1487460640e+02 3.7756554654e+02 0.0000000000e+00 0.0000e+00 1.0000e+00
<mgrwt>
<rscale>  0 0.74893525E+03</rscale>
<asrwt>0</asrwt>
<pdfrwt beam="1">  1        2 0.56004097E-01 0.74893525E+03</pdfrwt>
<pdfrwt beam="2">  1       -2 0.59262783E-01 0.74893525E+03</pdfrwt>
<totfact> 0.29101070E+02</totfact>
</mgrwt>
<rwgt>
<wgt id='morphing_basis_vector_1'> +3.6164114e-04 </wgt>
<wgt id='morphing_basis_vector_2'> +2.8975692e-04 </wgt>
<wgt id='morphing_basis_vector_3'> +3.0486623e-04 </wgt>
<wgt id='morphing_basis_vector_4'> +1.1823263e-04 </wgt>
<wgt id='morphing_basis_vector_5'> +2.3787315e-04 </wgt>
</rwgt>
</event>
<event>
 4      1 +5.9529000e-06 6.31648900e+02 7.81860800e-03 9.14558000e-02
        2 -1    0    0  501    0 +0.0000000000e+00 +0.0000000000e+00 +1.1449365033e+03 1.1449365033e+03 0.0000000000e+00 0.0000e+00 -1.0000e+00
       -2 -1    0    0    0  501 -0.0000000000e+00 -0.0000000000e+00 -8.7118429851e+01 8.7118429851e+01 0.0000000000e+00 0.0000e+00 1.0000e+00
      -13  1    1    2    0    0 -2.8906375451e+02 -1.2680752375e+02 +5.4909198434e+02 6.3335614745e+02 0.0000000000e+00 0.0000e+00 1.0000e+00
       13  1    1    2    0    0 +2.8906375451e+02 +1.2680752375e+02 +5.0872608906e+02 5.9869878565e+02 0.0000000000e+00 0.0000e+00 -1.0000e+00
<mgrwt>
<rscale>  0 0.63164886E+03</rscale>
<asrwt>0</asrwt>
<pdfrwt beam="1">  1        2 0.17614407E+00 0.63164886E+03</pdfrwt>
<pdfrwt beam="2">  1       -2 0.13402836E-01 0.63164886E+03</pdfrwt>
<totfact> 0.97952786E+02</totfact>
</mgrwt>
<rwgt>
<wgt id='morphing_basis_vector_1'> +1.9279664e-04 </wgt>
<wgt id='morphing_basis_vector_2'> +1.2872245e-04 </wgt>
<wgt id='morphing_basis_vector_3'> +1.5193999e-04 </wgt>
<wgt id='morphing_basis_vector_4'> +6.2879493e-05 </wgt>
<wgt id='morphing_basis_vector_5'> +1.0535634e-04 </wgt>
</rwgt>
</event>
<event>
 4      1 +5.9529000e-06 6.77340700e+02 7.81860800e-03 9.07230000e-02
        2 -1    0    0  501    0 +0.0000000000e+00 +0.0000000000e+00 +5.9213808398e+01 5.9213808398e+01 0.0000000000e+00 0.0000e+00 -1.0000e+00
       -2 -1    0    0    0  501 -0.0000000000e+00 -0.0000000000e+00 -1.9370079620e+03 1.9370079620e+03 0.0000000000e+00 0.0000e+00 1.0000e+00
      -13  1    1    2    0    0 +1.4172327089e+02 -2.4752673515e+02 -1.4770449609e+03 1.5043326716e+03 0.0000000000e+00 0.0000e+00 1.0000e+00
       13  1    1    2    0    0 -1.4172327089e+02 +2.4752673515e+02 -4.0074919269e+02 4.9188909885e+02 0.0000000000e+00 0.0000e+00 -1.0000e+00
<mgrwt>
<rscale>  0 0.67734074E+03</rscale>
<asrwt>0</asrwt>
<pdfrwt beam="1">  1        2 0.91098172E-02 0.67734074E+03</pdfrwt>
<pdfrwt beam="2">  1       -2 0.29800121E+00 0.67734074E+03</pdfrwt>
<totfact> 0.24130966E+01</totfact>
</mgrwt>
<rwgt>
<wgt id='morphing_basis_vector_1'> +2.3540797e-04 </wgt>
<wgt id='morphing_basis_vector_2'> +1.3910502e-04 </wgt>
<wgt id='morphing_basis_vector_3'> +1.9729194e-04 </wgt>
<wgt id='morphing_basis_vector_4'> +9.5460927e-05 </wgt>
<wgt id='morphing_basis_vector_5'> +1.4848094e-04 </wgt>
</rwgt>
</event>
<event>
 4      1 +5.9529000e-06 7.31785700e+02 7.81860800e-03 8.99248300e-02
        2 -1    0    0  501    0 +0.0000000000e+00 +0.0000000000e+00 +1.1885641161e+03 1.1885641161e+03 0.0000000000e+00 0.0000e+00 1.0000e+00
       -2 -1    0    0    0  501 -0.0000000000e+00 -0.0000000000e+00 -1.1263807010e+02 1.1263807010e+02 0.0000000000e+00 0.0000e+00 -1.0000e+00
      -13  1    1    2    0    0 +2.1053213417e+02 +4.3787537123e+01 +1.1578337690e+01 2.1534898613e+02 0.0000000000e+00 0.0000e+00 -1.0000e+00
       13  1    1    2    0    0 -2.1053213417e+02 -4.3787537123e+01 +1.0643477083e+03 1.0858532001e+03 0.0000000000e+00 0.0000e+00 1.0000e+00
<mgrwt>
<rscale>  0 0.73178567E+03</rscale>
<asrwt>0</asrwt>
<pdfrwt beam="1">  1        2 0.18285601E+00 0.73178567E+03</pdfrwt>
<pdfrwt beam="2">  1       -2 0.17328935E-01 0.73178567E+03</pdfrwt>
<totfact> 0.60706584E+02</totfact>
</mgrwt>
<rwgt>
<wgt id='morphing_basis_vector_1'> +3.0595264e-04 </wgt>
<wgt id='morphing_basis_vector_2'> +1.8136887e-04 </wgt>
<wgt id='morphing_basis_vector_3'> +2.6553455e-04 </wgt>
<wgt id='morphing_basis_vector_4'> +1.3770472e-04 </wgt>
<wgt id='morphing_basis_vector_5'> +2.1456504e-04 </wgt>
</rwgt>
</event>
<event>
 4      1 +5.9529000e-06 6.81624500e+02 7.81860800e-03 9.06574100e-02
        2 -1    0    0  501    0 +0.0000000000e+00 +0.0000000000e+00 +2.8560548948e+02 2.8560548948e+02 0.0000000000e+00 0.0000e+00 -1.0000e+00
       -2 -1    0    0    0  501 -0.0000000000e+00 -0.0000000000e+00 -4.0669028491e+02 4.0669028491e+02 0.0000000000e+00 0.0000e+00 1.0000e+00
      -13  1    1    2    0    0 +1.8792681932e+02 -2.7127123221e+02 -1.4701286335e+02 3.6127185447e+02 0.0000000000e+00 0.0000e+00 1.0000e+00
       13  1    1    2    0    0 -1.8792681932e+02 +2.7127123221e+02 +2.5928067917e+01 3.3102391991e+02 0.0000000000e+00 0.0000e+00 -1.0000e+00
<mgrwt>
<rscale>  0 0.68162447E+03</rscale>
<asrwt>0</asrwt>
<pdfrwt beam="1">  1        2 0.43939306E-01 0.68162447E+03</pdfrwt>
<pdfrwt beam="2">  1       -2 0.62567736E-01 0.68162447E+03</pdfrwt>
<totfact> 0.34286216E+02</totfact>
</mgrwt>
<rwgt>
<wgt id='morphing_basis_vector_1'> +2.4286780e-04 </wgt>
<wgt id='morphing_basis_vector_2'> +1.4960841e-04 </wgt>
<wgt id='morphing_basis_vector_3'> +2.0283067e-04 </wgt>
<wgt id='morphing_basis_vector_4'> +9.5941846e-05 </wgt>
<wgt id='morphing_basis_vector_5'> +1.5301645e-04 </wgt>
</rwgt>
</event>
<event>
 4      1 +5.9529000e-06 6.42107100e+02 7.81860800e-03 9.12824600e-02
        2 -1    0    0  501    0 +0.0000000000e+00 +0.0000000000e+00 +1.6569705201e+02 1.6569705201e+02 0.0000000000e+00 0.0000e+00 -1.0000e+00
       -2 -1    0    0    0  501 -0.0000000000e+00 -0.0000000000e+00 -6.2207136270e+02 6.2207136270e+02 0.0000000000e+00 0.0000e+00 1.0000e+00
      -13  1    1    2    0    0 -1.9468046161e+02 -1.9479851842e+02 -4.3063003253e+02 5.1116452325e+02 0.0000000000e+00 0.0000e+00 1.0000e+00
       13  1    1    2    0    0 +1.9468046161e+02 +1.9479851842e+02 -2.5744278157e+01 2.7660389145e+02 0.0000000000e+00 0.0000e+00 -1.0000e+00
<mgrwt>
<rscale>  0 0.64210713E+03</rscale>
<asrwt>0</asrwt>
<pdfrwt beam="1">  1        2 0.25491855E-01 0.64210713E+03</pdfrwt>
<pdfrwt beam="2">  1       -2 0.95703285E-01 0.64210713E+03</pdfrwt>
<totfact> 0.24988775E+02</totfact>
</mgrwt>
<rwgt>
<wgt id='morphing_basis_vector_1'> +1.9680631e-04 </wgt>
<wgt id='morphing_basis_vector_2'> +1.1526501e-04 </wgt>
<wgt id='morphing_basis_vector_3'> +1.6082545e-04 </wgt>
<wgt id='morphing_basis_vector_4'> +7.4063515e-05 </wgt>
<wgt id='morphing_basis_vector_5'> +1.1435228e-04 </wgt>
</rwgt>
</event>
<event>
 4      1 +5.9529000e-06 6.60376200e+02 7.81860800e-03 9.09878200e-02
        2 -1    0    0  501    0 +0.0000000000e+00 +0.0000000000e+00 +1.4076163387e+03 1.4076163387e+03 0.0000000000e+00 0.0000e+00 -1.0000e+00
       -2 -1    0    0    0  501 -0.0000000000e+00 -0.0000000000e+00 -7.7453052292e+01 7.7453052292e+01 0.0000000000e+00 0.0000e+00 1.0000e+00
      -13  1    1    2    0    0 +2.9672489447e+02 +3.6900612248e+01 +9.8005231764e+02 1.0246510935e+03 0.0000000000e+00 0.0000e+00 -1.0000e+00
       13  1    1    2    0    0 -2.9672489447e+02 -3.6900612248e+01 +3.5011096878e+02 4.6041829746e+02 0.0000000000e+00 0.0000e+00 1.0000e+00
<mgrwt>
<rscale>  0 0.66037620E+03</rscale>
<asrwt>0</asrwt>
<pdfrwt beam="1">  1        2 0.21655634E+00 0.66037620E+03</pdfrwt>
<pdfrwt beam="2">  1       -2 0.11915855E-01 0.66037620E+03</pdfrwt>
<totfact> 0.83750906E+02</totfact>
</mgrwt>
<rwgt>
<wgt id='morphing_basis_vector_1'> +2.4590361e-04 </wgt>
<wgt id='morphing_basis_vector_2'> +2.1917629e-04 </wgt>
<wgt id='morphing_basis_vector_3'> +1.8583372e-04 </wgt>
<wgt id='morphing_basis_vector_4'> +5.6396697e-05 </wgt>
<wgt id='morphing_basis_vector_5'> +1.3081445e-04 </wgt>
</rwgt>
</event>
<event>
 4      1 +5.9529000e-06 7.14528200e+02 7.81860800e-03 9.01697800e-02
        2 -1    0    0  501    0 +0.0000000000e+00 +0.0000000000e+00 +1.0250600634e+03 1.0250600634e+03 0.0000000000e+00 0.0000e+00 1.0000e+00
       -2 -1    0    0    0  501 -0.0000000000e+00 -0.0000000000e+00 -1.2451722709e+02 1.2451722709e+02 0.0000000000e+00 0.0000e+00 -1.0000e+00
      -13  1    1    2    0    0 -2.1794745240e+02 -1.7099904035e+01 -4.3399810191e+00 2.1866031684e+02 0.0000000000e+00 0.0000e+00 -1.0000e+00
       13  1    1    2    0    0 +2.1794745240e+02 +1.7099904035e+01 +9.0488281737e+02 9.3091697369e+02 0.0000000000e+00 0.0000e+00 1.0000e+00
<mgrwt>
<rscale>  0 0.71452820E+03</rscale>
<asrwt>0</asrwt>
<pdfrwt beam="1">  1        2 0.15770154E+00 0.71452820E+03</pdfrwt>
<pdfrwt beam="2">  1       -2 0.19156497E-01 0.71452820E+03</pdfrwt>
<totfact> 0.64397016E+02</totfact>
</mgrwt>
<rwgt>
<wgt id='morphing_basis_vector_1'> +2.8176723e-04 </wgt>
<wgt id='morphing_basis_vector_2'> +1.6629537e-04 </wgt>
<wgt id='morphing_basis_vector_3'> +2.4213204e-04 </wgt>
<wgt id='morphing_basis_vector_4'> +1.2332409e-04 </wgt>
<wgt id='morphing_basis_vector_5'> +1.9173879e-04 </wgt>
</rwgt>
</event>
<event>
 4      1 +5.9529000e-06 6.52225000e+02 7.81860800e-03 9.11180300e-02
        2 -1    0    0  501    0 +0.0000000000e+00 +0.0000000000e+00 +1.7051335327e+02 1.7051335327e+02 0.0000000000e+00 0.0000e+00 -1.0000e+00
       -2 -1    0    0    0  501 -0.0000000000e+00 -0.0000000000e+00 -6.2370117232e+02 6.2370117232e+02 0.0000000000e+00 0.0000e+00 1.0000e+00
      -13  1    1    2    0    0 +1.0590305284e+02 +2.2664492262e+02 -4.8134073699e+02 5.4246869277e+02 0.0000000000e+00 0.0000e+00 1.0000e+00
       13  1    1    2    0    0 -1.0590305284e+02 -2.2664492262e+02 +2.8152917932e+01 2.5174583282e+02 0.0000000000e+00 0.0000e+00 -1.0000e+00
<mgrwt>
<rscale>  0 0.65222505E+03</rscale>
<asrwt>0</asrwt>
<pdfrwt beam="1">  1        2 0.26232824E-01 0.65222505E+03</pdfrwt>
<pdfrwt beam="2">  1       -2 0.95954026E-01 0.65222505E+03</pdfrwt>
<totfact> 0.24005369E+02</totfact>
</mgrwt>
<rwgt>
<wgt id='morphing_basis_vector_1'> +2.0693370e-04 </wgt>
<wgt id='morphing_basis_vector_2'> +1.2051598e-04 </wgt>
<wgt id='morphing_basis_vector_3'> +1.7063005e-04 </wgt>
<wgt id='morphing_basis_vector_4'> +8.0175943e-05 </wgt>
<wgt id='morphing_basis_vector_5'> +1.2352089e-04 </wgt>
</rwgt>
</event>
<event>
 4      1 +5.9529000e-06 6.62225900e+02 7.81860800e-03 9.09585400e-02
        2 -1    0    0  501    0 +0.0000000000e+00 +0.0000000000e+00 +6.7747236593e+02 6.7747236593e+02 0.0000000000e+00 0.0000e+00 -1.0000e+00
       -2 -1    0    0    0  501 -0.0000000000e+00 -0.0000000000e+00 -1.6183063966e+02 1.6183063966e+02 0.0000000000e+00 0.0000e+00 1.0000e+00
      -13  1    1    2    0    0 +1.9396317496e+02 -7.0560724811e+01 -7.0322975986e+01 2.1805010909e+02 0.0000000000e+00 0.0000e+00 1.0000e+00
       13  1    1    2    0    0 -1.9396317496e+02 +7.0560724811e+01 +5.8596470225e+02 6.2125289650e+02 0.0000000000e+00 0.0000e+00 -1.0000e+00
<mgrwt>
<rscale>  0 0.66222590E+03</rscale>
<asrwt>0</asrwt>
<pdfrwt beam="1">  1        2 0.10422652E+00 0.66222590E+03</pdfrwt>
<pdfrwt beam="2">  1       -2 0.24897022E-01 0.66222590E+03</pdfrwt>
<totfact> 0.71325652E+02</totfact>
</mgrwt>
<rwgt>
<wgt id='morphing_basis_vector_1'> +2.1751406e-04 </wgt>
<wgt id='morphing_basis_vector_2'> +1.2640410e-04 </wgt>
<wgt id='morphing_basis_vector_3'> +1.8078453e-04 </wgt>
<wgt id='morphing_basis_vector_4'> +8.6424473e-05 </wgt>
<wgt id='morphing_basis_vector_5'> +1.3307995e-04 </wgt>
</rwgt>
</event>
<event>
 4      1 +5.9529000e-06 7.16256800e+02 7.81860800e-03 9.01449200e-02
        2 -1    0    0  501    0 +0.0000000000e+00 +0.0000000000e+00 +2.0426419927e+03 2.0426419927e+03 0.0000000000e+00 0.0000e+00 1.0000e+00
       -2 -1    0    0    0  501 -0.0000000000e+00 -0.0000000000e+00 -6.2789253812e+01 6.2789253812e+01 0.0000000000e+00 0.0000e+00 -1.0000e+00
      -13  1    1    2    0    0 -1.9266202147e+02 -2.4746517467e+02 +1.4981975930e+03 1.5306709949e+03 0.0000000000e+00 0.0000e+00 -1.0000e+00
       13  1    1    2    0    0 +1.9266202147e+02 +2.4746517467e+02 +4.8165514593e+02 5.7476025158e+02 0.0000000000e+00 0.0000e+00 1.0000e+00
<mgrwt>
<rscale>  0 0.71625684E+03</rscale>
<asrwt>0</asrwt>
<pdfrwt beam="1">  1        2 0.31425256E+00 0.71625684E+03</pdfrwt>
<pdfrwt beam="2">  1       -2 0.96598868E-02 0.71625684E+03</pdfrwt>
<totfact> 0.52090466E+02</totfact>
</mgrwt>
<rwgt>
<wgt id='morphing_basis_vector_1'> +3.3200386e-04 </wgt>
<wgt id='morphing_basis_vector_2'> +3.1520233e-04 </wgt>
<wgt id='morphing_basis_vector_3'> +2.6325991e-04 </wgt>
<wgt id='morphing_basis_vector_4'> +7.2526011e-05 </wgt>
<wgt id='morphing_basis_vector_5'> +1.9241215e-04 </wgt>
</rwgt>
</event>
<event>
 4      1 +5.9529000e-06 7.12816700e+02 7.81860800e-03 9.01944700e-02
        2 -1    0    0  501    0 +0.0000000000e+00 +0.0000000000e+00 +9.3177254180e+02 9.3177254180e+02 0.0000000000e+00 0.0000e+00 1.0000e+00
       -2 -1    0    0    0  501 -0.0000000000e+00 -0.0000000000e+00 -1.3632825237e+02 1.3632825237e+02 0.0000000000e+00 0.0000e+00 -1.0000e+00
      -13  1    1    2    0    0 -2.6156178431e+02 -1.9789540308e+02 +1.8874849397e+02 3.7842192266e+02 0.0000000000e+00 0.0000e+00 -1.0000e+00
       13  1    1    2    0    0 +2.6156178431e+02 +1.9789540308e+02 +6.0669579547e+02 6.8967887151e+02 0.0000000000e+00 0.0000e+00 1.0000e+00
<mgrwt>
<rscale>  0 0.71281673E+03</rscale>
<asrwt>0</asrwt>
<pdfrwt beam="1">  1        2 0.14334962E+00 0.71281673E+03</pdfrwt>
<pdfrwt beam="2">  1       -2 0.20973578E-01 0.71281673E+03</pdfrwt>
<totfact> 0.63312305E+02</totfact>
</mgrwt>
<rwgt>
<wgt id='morphing_basis_vector_1'> +2.8132062e-04 </wgt>
<wgt id='morphing_basis_vector_2'> +1.7060631e-04 </wgt>
<wgt id='morphing_basis_vector_3'> +2.4061856e-04 </wgt>
<wgt id='morphing_basis_vector_4'> +1.1994029e-04 </wgt>
<wgt id='morphing_basis_vector_5'> +1.8951584e-04 </wgt>
</rwgt>
</event>
<event>
 4      1 +5.9529000e-06 7.19123600e+02 7.81860800e-03 9.01038500e-02
        2 -1    0    0  501    0 +0.0000000000e+00 +0.0000000000e+00 +6.4462681671e+02 6.4462681671e+02 0.0000000000e+00 0.0000e+00 1.0000e+00
       -2 -1    0    0    0  501 -0.0000000000e+00 -0.0000000000e+00 -2.0055741091e+02 2.0055741091e+02 0.0000000000e+00 0.0000e+00 -1.0000e+00
      -13  1    1    2    0    0 -2.8424294663e+02 -3.3171414648e+01 -3.3819484707e+01 2.8816341372e+02 0.0000000000e+00 0.0000e+00 -1.0000e+00
       13  1    1    2    0    0 +2.8424294663e+02 +3.3171414648e+01 +4.7788889051e+02 5.5702081391e+02 0.0000000000e+00 0.0000e+00 1.0000e+00
<mgrwt>
<rscale>  0 0.71912359E+03</rscale>
<asrwt>0</asrwt>
<pdfrwt beam="1">  1        2 0.99173356E-01 0.71912359E+03</pdfrwt>
<pdfrwt beam="2">  1       -2 0.30854987E-01 0.71912359E+03</pdfrwt>
<totfact> 0.52039988E+02</totfact>
</mgrwt>
<rwgt>
<wgt id='morphing_basis_vector_1'> +2.8857636e-04 </wgt>
<wgt id='morphing_basis_vector_2'> +1.7181569e-04 </wgt>
<wgt id='morphing_basis_vector_3'> +2.4841171e-04 </wgt>
<wgt id='morphing_basis_vector_4'> +1.2646896e-04 </wgt>
<wgt id='morphing_basis_vector_5'> +1.9762205e-04 </wgt>
</rwgt>
</event>
<event>
 4      1 +5.9529000e-06 6.27210400e+02 7.81860800e-03 9.15304400e-02
        2 -1    0    0  501    0 +0.0000000000e+00 +0.0000000000e+00 +1.1210248968e+03 1.1210248968e+03 0.0000000000e+00 0.0000e+00 1.0000e+00
       -2 -1    0    0    0  501 -0.0000000000e+00 -0.0000000000e+00 -8.7730628028e+01 8.7730628028e+01 0.0000000000e+00 0.0000e+00 -1.0000e+00
      -13  1    1    2    0    0 -1.6603125808e+01 +2.8368734593e+02 +2.6101934301e+02 3.8585654258e+02 0.0000000000e+00 0.0000e+00 -1.0000e+00
       13  1    1    2    0    0 +1.6603125808e+01 -2.8368734593e+02 +7.7227492575e+02 8.2289898224e+02 0.0000000000e+00 0.0000e+00 1.0000e+00
<mgrwt>
<rscale>  0 0.62721039E+03</rscale>
<asrwt>0</asrwt>
<pdfrwt beam="1">  1        2 0.17246536E+00 0.62721039E+03</pdfrwt>
<pdfrwt beam="2">  1       -2 0.13497021E-01 0.62721039E+03</pdfrwt>
<totfact> 0.10004782E+03</totfact>
</mgrwt>
<rwgt>
<wgt id='morphing_basis_vector_1'> +1.8246160e-04 </wgt>
<wgt id='morphing_basis_vector_2'> +1.0737605e-04 </wgt>
<wgt id='morphing_basis_vector_3'> +1.4713241e-04 </wgt>
<wgt id='morphing_basis_vector_4'> +6.5847655e-05 </wgt>
<wgt id='morphing_basis_vector_5'> +1.0174300e-04 </wgt>
</rwgt>
</event>
<event>
 4      1 +5.9529000e-06 6.24729100e+02 7.81860800e-03 9.15724400e-02
        2 -1    0    0  501    0 +0.0000000000e+00 +0.0000000000e+00 +3.8677628651e+02 3.8677628651e+02 0.0000000000e+00 0.0000e+00 -1.0000e+00
       -2 -1    0    0    0  501 -0.0000000000e+00 -0.0000000000e+00 -2.5226886558e+02 2.5226886558e+02 0.0000000000e+00 0.0000e+00 1.0000e+00
      -13  1    1    2    0    0 -1.4440122918e+02 +2.0416154757e+02 -1.2422003119e+02 2.7922082416e+02 0.0000000000e+00 0.0000e+00 1.0000e+00
       13  1    1    2    0    0 +1.4440122918e+02 -2.0416154757e+02 +2.5872745212e+02 3.5982432794e+02 0.0000000000e+00 0.0000e+00 -1.0000e+00
<mgrwt>
<rscale>  0 0.62472911E+03</rscale>
<asrwt>0</asrwt>
<pdfrwt beam="1">  1        2 0.59504044E-01 0.62472911E+03</pdfrwt>
<pdfrwt beam="2">  1       -2 0.38810595E-01 0.62472911E+03</pdfrwt>
<totfact> 0.61948294E+02</totfact>
</mgrwt>
<rwgt>
<wgt id='morphing_basis_vector_1'> +1.7941502e-04 </wgt>
<wgt id='morphing_basis_vector_2'> +1.0381128e-04 </wgt>
<wgt id='morphing_basis_vector_3'> +1.4485812e-04 </wgt>
<wgt id='morphing_basis_vector_4'> +6.5176521e-05 </wgt>
<wgt id='morphing_basis_vector_5'> +9.9744864e-05 </wgt>
</rwgt>
</event>
<event>
 4      1 +5.9529000e-06 6.31141800e+02 7.81860800e-03 9.14643000e-02
        2 -1    0    0  501    0 +0.0000000000e+00 +0.0000000000e+00 +9.2285375735e+01 9.2285375735e+01 0.0000000000e+00 0.0000e+00 1.0000e+00
       -2 -1    0    0    0  501 -0.0000000000e+00 -0.0000000000e+00 -1.0790983792e+03 1.0790983792e+03 0.0000000000e+00 0.0000e+00 -1.0000e+00
      -13  1    1    2    0    0 -2.4119617562e+02 +1.4969616342e+02 -7.4923818576e+02 8.0121307745e+02 0.0000000000e+00 0.0000e+00 -1.0000e+00
       13  1    1    2    0    0 +2.4119617562e+02 -1.4969616342e+02 -2.3757481775e+02 3.7017067753e+02 0.0000000000e+00 0.0000e+00 1.0000e+00
<mgrwt>
<rscale>  0 0.63114182E+03</rscale>
<asrwt>0</asrwt>
<pdfrwt beam="1">  1        2 0.14197749E-01 0.63114182E+03</pdfrwt>
<pdfrwt beam="2">  1       -2 0.16601514E+00 0.63114182E+03</pdfrwt>
<totfact> 0.11763299E+02</totfact>
</mgrwt>
<rwgt>
<wgt id='morphing_basis_vector_1'> +1.8620197e-04 </wgt>
<wgt id='morphing_basis_vector_2'> +1.0953415e-04 </wgt>
<wgt id='morphing_basis_vector_3'> +1.5066307e-04 </wgt>
<wgt id='morphing_basis_vector_4'> +6.7912397e-05 </wgt>
<wgt id='morphing_basis_vector_5'> +1.0497027e-04 </wgt>
</rwgt>
</event>
<event>
 4      1 +5.9529000e-06 6.42771000e+02 7.81860800e-03 9.12715800e-02
        2 -1    0    0  501    0 +0.0000000000e+00 +0.0000000000e+00 +1.0127237948e+03 1.0127237948e+03 0.0000000000e+00 0.0000e+00 -1.0000e+00
       -2 -1    0    0    0  501 -0.0000000000e+00 -0.0000000000e+00 -1.0199091673e+02 1.0199091673e+02 0.0000000000e+00 0.0000e+00 1.0000e+00
      -13  1    1    2    0    0 +1.7655803905e+02 -1.2941831325e+02 +4.7298810439e+01 2.2396209150e+02 0.0000000000e+00 0.0000e+00 1.0000e+00
       13  1    1    2    0    0 -1.7655803905e+02 +1.2941831325e+02 +8.6343406759e+02 8.9075262000e+02 0.0000000000e+00 0.0000e+00 -1.0000e+00
<mgrwt>
<rscale>  0 0.64277096E+03</rscale>
<asrwt>0</asrwt>
<pdfrwt beam="1">  1        2 0.15580365E+00 0.64277096E+03</pdfrwt>
<pdfrwt beam="2">  1       -2 0.15690911E-01 0.64277096E+03</pdfrwt>
<totfact> 0.91107488E+02</totfact>
</mgrwt>
<rwgt>
<wgt id='morphing_basis_vector_1'> +1.9690195e-04 </wgt>
<wgt id='morphing_basis_vector_2'> +1.1388244e-04 </wgt>
<wgt id='morphing_basis_vector_3'> +1.6136024e-04 </wgt>
<wgt id='morphing_basis_vector_4'> +7.4954488e-05 </wgt>
<wgt id='morphing_basis_vector_5'> +1.1494386e-04 </wgt>
</rwgt>
</event>
<event>
 4      1 +5.9529000e-06 7.28139300e+02 7.81860800e-03 8.99759900e-02
        2 -1    0    0  501    0 +0.0000000000e+00 +0.0000000000e+00 +9.1724897250e+02 9.1724897250e+02 0.0000000000e+00 0.0000e+00 -1.0000e+00
       -2 -1    0    0    0  501 -0.0000000000e+00 -0.0000000000e+00 -1.4450461923e+02 1.4450461923e+02 0.0000000000e+00 0.0000e+00 1.0000e+00
      -13  1    1    2    0    0 -2.0514533508e+02 +1.4485522907e+01 -5.1692604994e+01 2.1205321099e+02 0.0000000000e+00 0.0000e+00 1.0000e+00
       13  1    1    2    0    0 +2.0514533508e+02 -1.4485522907e+01 +8.2443695826e+02 8.4970038074e+02 0.0000000000e+00 0.0000e+00 -1.0000e+00
<mgrwt>
<rscale>  0 0.72813931E+03</rscale>
<asrwt>0</asrwt>
<pdfrwt beam="1">  1        2 0.14111522E+00 0.72813931E+03</pdfrwt>
<pdfrwt beam="2">  1       -2 0.22231480E-01 0.72813931E+03</pdfrwt>
<totfact> 0.58623739E+02</totfact>
</mgrwt>
<rwgt>
<wgt id='morphing_basis_vector_1'> +3.0068218e-04 </wgt>
<wgt id='morphing_basis_vector_2'> +1.7800926e-04 </wgt>
<wgt id='morphing_basis_vector_3'> +2.6043852e-04 </wgt>
<wgt id='morphing_basis_vector_4'> +1.3460178e-04 </wgt>
<wgt id='morphing_basis_vector_5'> +2.0958998e-04 </wgt>
</rwgt>
</event>
<event>
 4      1 +5.9529000e-06 6.31692600e+02 7.81860800e-03 9.14550700e-02
        2 -1    0    0  501    0 +0.0000000000e+00 +0.0000000000e+00 +1.9135311896e+02 1.9135311896e+02 0.0000000000e+00 0.0000e+00 -1.0000e+00
       -2 -1    0    0    0  501 -0.0000000000e+00 -0.0000000000e+00 -5.2133395498e+02 5.2133395498e+02 0.0000000000e+00 0.0000e+00 1.0000e+00
      -13  1    1    2    0    0 +2.6163473449e+02 +2.5657865144e+01 +3.2521309489e+01 2.6489374456e+02 0.0000000000e+00 0.0000e+00 1.0000e+00
       13  1    1    2    0    0 -2.6163473449e+02 -2.5657865144e+01 -3.6250214551e+02 4.4779332938e+02 0.0000000000e+00 0.0000e+00 -1.0000e+00
<mgrwt>
<rscale>  0 0.63169258E+03</rscale>
<asrwt>0</asrwt>
<pdfrwt beam="1">  1        2 0.29438941E-01 0.63169258E+03</pdfrwt>
<pdfrwt beam="2">  1       -2 0.80205224E-01 0.63169258E+03</pdfrwt>
<totfact> 0.31788244E+02</totfact>
</mgrwt>
<rwgt>
<wgt id='morphing_basis_vector_1'> +2.2329765e-04 </wgt>
<wgt id='morphing_basis_vector_2'> +2.2303520e-04 </wgt>
<wgt id='morphing_basis_vector_3'> +1.5605908e-04 </wgt>
<wgt id='morphing_basis_vector_4'> +3.6454451e-05 </wgt>
<wgt id='morphing_basis_vector_5'> +1.0521613e-04 </wgt>
</rwgt>
</event>
<event>
 4      1 +5.9529000e-06 7.26316100e+02 7.81860800e-03 9.00016900e-02
        2 -1    0    0  501    0 +0.0000000000e+00 +0.0000000000e+00 +1.5028052002e+03 1.5028052002e+03 0.0000000000e+00 0.0000e+00 1.0000e+00
       -2 -1    0    0    0  501 -0.0000000000e+00 -0.0000000000e+00 -8.7758390623e+01 8.7758390623e+01 0.0000000000e+00 0.0000e+00 -1.0000e+00
      -13  1    1    2    0    0 -1.9071817863e+02 -2.3333511792e+02 +2.6374963558e+02 4.0047792846e+02 0.0000000000e+00 0.0000e+00 -1.0000e+00
       13  1    1    2    0    0 +1.9071817863e+02 +2.3333511792e+02 +1.1512971740e+03 1.1900856624e+03 0.0000000000e+00 0.0000e+00 1.0000e+00
<mgrwt>
<rscale>  0 0.72631609E+03</rscale>
<asrwt>0</asrwt>
<pdfrwt beam="1">  1        2 0.23120078E+00 0.72631609E+03</pdfrwt>
<pdfrwt beam="2">  1       -2 0.13501292E-01 0.72631609E+03</pdfrwt>
<totfact> 0.60569848E+02</totfact>
</mgrwt>
<rwgt>
<wgt id='morphing_basis_vector_1'> +2.9889669e-04 </wgt>
<wgt id='morphing_basis_vector_2'> +1.7887965e-04 </wgt>
<wgt id='morphing_basis_vector_3'> +2.5826526e-04 </wgt>
<wgt id='morphing_basis_vector_4'> +1.3215378e-04 </wgt>
<wgt id='morphing_basis_vector_5'> +2.0710483e-04 </wgt>
</rwgt>
</event>
<event>
 4      1 +5.9529000e-06 6.46740700e+02 7.81860800e-03 9.12067700e-02
        2 -1    0    0  501    0 +0.0000000000e+00 +0.0000000000e+00 +9.3306651090e+02 9.3306651090e+02 0.0000000000e+00 0.0000e+00 -1.0000e+00
       -2 -1    0    0    0  501 -0.0000000000e+00 -0.0000000000e+00 -1.1206960025e+02 1.1206960025e+02 0.0000000000e+00 0.0000e+00 1.0000e+00
      -13  1    1    2    0    0 +1.2579394713e+02 -2.4661272197e+02 +1.4044457207e+02 3.1042974986e+02 0.0000000000e+00 0.0000e+00 1.0000e+00
       13  1    1    2    0    0 -1.2579394713e+02 +2.4661272197e+02 +6.8055233857e+02 7.3470636128e+02 0.0000000000e+00 0.0000e+00 -1.0000e+00
<mgrwt>
<rscale>  0 0.64674072E+03</rscale>
<asrwt>0</asrwt>
<pdfrwt beam="1">  1        2 0.14354869E+00 0.64674072E+03</pdfrwt>
<pdfrwt beam="2">  1       -2 0.17241478E-01 0.64674072E+03</pdfrwt>
<totfact> 0.87600543E+02</totfact>
</mgrwt>
<rwgt>
<wgt id='morphing_basis_vector_1'> +2.0157399e-04 </wgt>
<wgt id='morphing_basis_vector_2'> +1.1820359e-04 </wgt>
<wgt id='morphing_basis_vector_3'> +1.6529600e-04 </wgt>
<wgt id='morphing_basis_vector_4'> +7.6653314e-05 </wgt>
<wgt id='morphing_basis_vector_5'> +1.1848723e-04 </wgt>
</rwgt>
</event>
<event>
 4      1 +5.9529000e-06 7.38137900e+02 7.81860800e-03 8.98364600e-02
        2 -1    0    0  501    0 +0.0000000000e+00 +0.0000000000e+00 +2.2792054033e+02 2.2792054033e+02 0.0000000000e+00 0.0000e+00 -1.0000e+00
       -2 -1    0    0    0  501 -0.0000000000e+00 -0.0000000000e+00 -5.9762888098e+02 5.9762888098e+02 0.0000000000e+00 0.0000e+00 1.0000e+00
      -13  1    1    2    0    0 -6.1342281543e+01 +8.5345973264e+01 -5.8053696161e+02 5.8997455407e+02 0.0000000000e+00 0.0000e+00 1.0000e+00
       13  1    1    2    0    0 +6.1342281543e+01 -8.5345973264e+01 +2.1082862097e+02 2.3557486724e+02 0.0000000000e+00 0.0000e+00 -1.0000e+00
<mgrwt>
<rscale>  0 0.73813792E+03</rscale>
<asrwt>0</asrwt>
<pdfrwt beam="1">  1        2 0.35064698E-01 0.73813792E+03</pdfrwt>
<pdfrwt beam="2">  1       -2 0.91942906E-01 0.73813792E+03</pdfrwt>
<totfact> 0.18908279E+02</totfact>
</mgrwt>
<rwgt>
<wgt id='morphing_basis_vector_1'> +3.1513693e-04 </wgt>
<wgt id='morphing_basis_vector_2'> +1.8681437e-04 </wgt>
<wgt id='morphing_basis_vector_3'> +2.7451894e-04 </wgt>
<wgt id='morphing_basis_vector_4'> +1.4342813e-04 </wgt>
<wgt id='morphing_basis_vector_5'> +2.2343866e-04 </wgt>
</rwgt>
</event>
<event>
 4      1 +5.9529000e-06 6.58867900e+02 7.81860800e-03 9.10117600e-02
        2 -1    0    0  501    0 +0.0000000000e+00 +0.0000000000e+00 +2.4086439827e+02 2.4086439827e+02 0.0000000000e+00 0.0000e+00 -1.0000e+00
       -2 -1    0    0    0  501 -0.0000000000e+00 -0.0000000000e+00 -4.5057191181e+02 4.5057191181e+02 0.0000000000e+00 0.0000e+00 1.0000e+00
      -13  1    1    2    0    0 +6.2337914379e+01 +3.1082436954e+02 -1.0820255115e+01 3.1719849020e+02 0.0000000000e+00 0.0000e+00 1.0000e+00
       13  1    1    2    0    0 -6.2337914379e+01 -3.1082436954e+02 -1.9888725843e+02 3.7423781988e+02 0.0000000000e+00 0.0000e+00 -1.0000e+00
<mgrwt>
<rscale>  0 0.65886792E+03</rscale>
<asrwt>0</asrwt>
<pdfrwt beam="1">  1        2 0.37056061E-01 0.65886792E+03</pdfrwt>
<pdfrwt beam="2">  1       -2 0.69318756E-01 0.65886792E+03</pdfrwt>
<totfact> 0.33579183E+02</totfact>
</mgrwt>
<rwgt>
<wgt id='morphing_basis_vector_1'> +2.3252025e-04 </wgt>
<wgt id='morphing_basis_vector_2'> +1.8190475e-04 </wgt>
<wgt id='morphing_basis_vector_3'> +1.8149925e-04 </wgt>
<wgt id='morphing_basis_vector_4'> +6.6696786e-05 </wgt>
<wgt id='morphing_basis_vector_5'> +1.2954161e-04 </wgt>
</rwgt>
</event>
<event>
 4      1 +5.9529000e-06 6.48408200e+02 7.81860800e-03 9.11796900e-02
        2 -1    0    0  501    0 +0.0000000000e+00 +0.0000000000e+00 +7.1019041948e+02 7.1019041948e+02 0.0000000000e+00 0.0000e+00 -1.0000e+00
       -2 -1    0    0    0  501 -0.0000000000e+00 -0.0000000000e+00 -1.4800017979e+02 1.4800017979e+02 0.0000000000e+00 0.0000e+00 1.0000e+00
      -13  1    1    2    0    0 +7.6510533133e+01 +2.1868728186e+02 -1.9059372605e+01 2.3246773671e+02 0.0000000000e+00 0.0000e+00 1.0000e+00
       13  1    1    2    0    0 -7.6510533133e+01 -2.1868728186e+02 +5.8124961230e+02 6.2572286255e+02 0.0000000000e+00 0.0000e+00 -1.0000e+00
<mgrwt>
<rscale>  0 0.64840823E+03</rscale>
<asrwt>0</asrwt>
<pdfrwt beam="1">  1        2 0.10926006E+00 0.64840823E+03</pdfrwt>
<pdfrwt beam="2">  1       -2 0.22769259E-01 0.64840823E+03</pdfrwt>
<totfact> 0.78409904E+02</totfact>
</mgrwt>
<rwgt>
<wgt id='morphing_basis_vector_1'> +2.0278306e-04 </wgt>
<wgt id='morphing_basis_vector_2'> +1.1763943e-04 </wgt>
<wgt id='morphing_basis_vector_3'> +1.6682757e-04 </wgt>
<wgt id='morphing_basis_vector_4'> +7.8086163e-05 </wgt>
<wgt id='morphing_basis_vector_5'> +1.2000662e-04 </wgt>
</rwgt>
</event>
<event>
 4      1 +5.9529000e-06 6.74369400e+02 7.81860800e-03 9.07688000e-02
        2 -1    0    0  501    0 +0.0000000000e+00 +0.0000000000e+00 +1.0141473918e+03 1.0141473918e+03 0.0000000000e+00 0.0000e+00 -1.0000e+00
       -2 -1    0    0    0  501 -0.0000000000e+00 -0.0000000000e+00 -1.1210747844e+02 1.1210747844e+02 0.0000000000e+00 0.0000e+00 1.0000e+00
      -13  1    1    2    0    0 -9.7924741558e+01 +2.7829610615e+02 +1.7835300099e+02 3.4474305021e+02 0.0000000000e+00 0.0000e+00 1.0000e+00
       13  1    1    2    0    0 +9.7924741558e+01 -2.7829610615e+02 +7.2368691235e+02 7.8151182001e+02 0.0000000000e+00 0.0000e+00 -1.0000e+00
<mgrwt>
<rscale>  0 0.67436936E+03</rscale>
<asrwt>0</asrwt>
<pdfrwt beam="1">  1        2 0.15602267E+00 0.67436936E+03</pdfrwt>
<pdfrwt beam="2">  1       -2 0.17247305E-01 0.67436936E+03</pdfrwt>
<totfact> 0.77861508E+02</totfact>
</mgrwt>
<rwgt>
<wgt id='morphing_basis_vector_1'> +2.3219640e-04 </wgt>
<wgt id='morphing_basis_vector_2'> +1.3775513e-04 </wgt>
<wgt id='morphing_basis_vector_3'> +1.9406114e-04 </wgt>
<wgt id='morphing_basis_vector_4'> +9.3245325e-05 </wgt>
<wgt id='morphing_basis_vector_5'> +1.4535160e-04 </wgt>
</rwgt>
</event>
<event>
 4      1 +5.9529000e-06 7.10122200e+02 7.81860800e-03 9.02334800e-02
        2 -1    0    0  501    0 +0.0000000000e+00 +0.0000000000e+00 +3.8386854370e+02 3.8386854370e+02 0.0000000000e+00 0.0000e+00 1.0000e+00
       -2 -1    0    0    0  501 -0.0000000000e+00 -0.0000000000e+00 -3.2841547061e+02 3.2841547061e+02 0.0000000000e+00 0.0000e+00 -1.0000e+00
      -13  1    1    2    0    0 +3.1276910818e+02 +6.3820533127e+01 -1.2821635576e+02 3.4400146710e+02 0.0000000000e+00 0.0000e+00 -1.0000e+00
       13  1    1    2    0    0 -3.1276910818e+02 -6.3820533127e+01 +1.8366942885e+02 3.6828254720e+02 0.0000000000e+00 0.0000e+00 1.0000e+00
<mgrwt>
<rscale>  0 0.71012215E+03</rscale>
<asrwt>0</asrwt>
<pdfrwt beam="1">  1        2 0.59056699E-01 0.71012215E+03</pdfrwt>
<pdfrwt beam="2">  1       -2 0.50525457E-01 0.71012215E+03</pdfrwt>
<totfact> 0.37761548E+02</totfact>
</mgrwt>
<rwgt>
<wgt id='morphing_basis_vector_1'> +2.7728490e-04 </wgt>
<wgt id='morphing_basis_vector_2'> +1.6705670e-04 </wgt>
<wgt id='morphing_basis_vector_3'> +2.3696429e-04 </wgt>
<wgt id='morphing_basis_vector_4'> +1.1828244e-04 </wgt>
<wgt id='morphing_basis_vector_5'> +1.8615663e-04 </wgt>
</rwgt>
</event>
<event>
 4      1 +5.9529000e-06 6.68508300e+02 7.81860800e-03 9.08598500e-02
        2 -1    0    0  501    0 +0.0000000000e+00 +0.0000000000e+00 +1.5528907459e+02 1.5528907459e+02 0.0000000000e+00 0.0000e+00 -1.0000e+00
       -2 -1    0    0    0  501 -0.0000000000e+00 -0.0000000000e+00 -7.1946998292e+02 7.1946998292e+02 0.0000000000e+00 0.0000e+00 1.0000e+00
      -13  1    1    2    0    0 +2.0268585606e+02 +1.0304496358e+02 -6.0268150071e+02 6.4414657654e+02 0.0000000000e+00 0.0000e+00 1.0000e+00
       13  1    1    2    0    0 -2.0268585606e+02 -1.0304496358e+02 +3.8500592375e+01 2.3061248097e+02 0.0000000000e+00 0.0000e+00 -1.0000e+00
<mgrwt>
<rscale>  0 0.66850827E+03</rscale>
<asrwt>0</asrwt>
<pdfrwt beam="1">  1        2 0.23890627E-01 0.66850827E+03</pdfrwt>
<pdfrwt beam="2">  1       -2 0.11068769E+00 0.66850827E+03</pdfrwt>
<totfact> 0.18904578E+02</totfact>
</mgrwt>
<rwgt>
<wgt id='morphing_basis_vector_1'> +2.2462412e-04 </wgt>
<wgt id='morphing_basis_vector_2'> +1.3098051e-04 </wgt>
<wgt id='morphing_basis_vector_3'> +1.8745414e-04 </wgt>
<wgt id='morphing_basis_vector_4'> +9.0290968e-05 </wgt>
<wgt id='morphing_basis_vector_5'> +1.3934097e-04 </wgt>
</rwgt>
</event>
<event>
 4      1 +5.9529000e-06 6.79812400e+02 7.81860800e-03 9.06851000e-02
        2 -1    0    0  501    0 +0.0000000000e+00 +0.0000000000e+00 +5.9136815155e+02 5.9136815155e+02 0.0000000000e+00 0.0000e+00 -1.0000e+00
       -2 -1    0    0    0  501 -0.0000000000e+00 -0.0000000000e+00 -1.9537107642e+02 1.9537107642e+02 0.0000000000e+00 0.0000e+00 1.0000e+00
      -13  1    1    2    0    0 -2.4643688460e+02 +1.9851290163e+02 +5.4393409679e+01 3.2108745416e+02 0.0000000000e+00 0.0000e+00 1.0000e+00
       13  1    1    2    0    0 +2.4643688460e+02 -1.9851290163e+02 +3.4160366545e+02 4.6565177381e+02 0.0000000000e+00 0.0000e+00 -1.0000e+00
<mgrwt>
<rscale>  0 0.67981242E+03</rscale>
<asrwt>0</asrwt>
<pdfrwt beam="1">  1        2 0.90979714E-01 0.67981242E+03</pdfrwt>
<pdfrwt beam="2">  1       -2 0.30057089E-01 0.67981242E+03</pdfrwt>
<totfact> 0.60429975E+02</totfact>
</mgrwt>
<rwgt>
<wgt id='morphing_basis_vector_1'> +2.3944979e-04 </wgt>
<wgt id='morphing_basis_vector_2'> +1.4438141e-04 </wgt>
<wgt id='morphing_basis_vector_3'> +2.0039630e-04 </wgt>
<wgt id='morphing_basis_vector_4'> +9.5989389e-05 </wgt>
<wgt id='morphing_basis_vector_5'> +1.5109195e-04 </wgt>
</rwgt>
</event>
<event>
 4      1 +5.9529000e-06 6.68639400e+02 7.81860800e-03 9.08578000e-02
        2 -1    0    0  501    0 +0.0000000000e+00 +0.0000000000e+00 +3.3836479573e+02 3.3836479573e+02 0.0000000000e+00 0.0000e+00 -1.0000e+00
       -2 -1    0    0    0  501 -0.0000000000e+00 -0.0000000000e+00 -3.3032300360e+02 3.3032300360e+02 0.0000000000e+00 0.0000e+00 1.0000e+00
      -13  1    1    2    0    0 +1.5897452562e+02 +2.8145793292e+02 -8.1297687156e+01 3.3331783891e+02 0.0000000000e+00 0.0000e+00 1.0000e+00
       13  1    1    2    0    0 -1.5897452562e+02 -2.8145793292e+02 +8.9339479285e+01 3.3536996043e+02 0.0000000000e+00 0.0000e+00 -1.0000e+00
<mgrwt>
<rscale>  0 0.66863944E+03</rscale>
<asrwt>0</asrwt>
<pdfrwt beam="1">  1        2 0.52056122E-01 0.66863944E+03</pdfrwt>
<pdfrwt beam="2">  1       -2 0.50818924E-01 0.66863944E+03</pdfrwt>
<totfact> 0.43094795E+02</totfact>
</mgrwt>
<rwgt>
<wgt id='morphing_basis_vector_1'> +2.2748055e-04 </wgt>
<wgt id='morphing_basis_vector_2'> +1.3943561e-04 </wgt>
<wgt id='morphing_basis_vector_3'> +1.8828591e-04 </wgt>
<wgt id='morphing_basis_vector_4'> +8.7743416e-05 </wgt>
<wgt id='morphing_basis_vector_5'> +1.3942589e-04 </wgt>
</rwgt>
</event>
<event>
 4      1 +5.9529000e-06 6.25242600e+02 7.81860800e-03 9.15637300e-02
        2 -1    0    0  501    0 +0.0000000000e+00 +0.0000000000e+00 +8.5087046374e+02 8.5087046374e+02 0.0000000000e+00 0.0000e+00 -1.0000e+00
       -2 -1    0    0    0  501 -0.0000000000e+00 -0.0000000000e+00 -1.1486130060e+02 1.1486130060e+02 0.0000000000e+00 0.0000e+00 1.0000e+00
      -13  1    1    2    0    0 -3.4562573071e+01 -3.0951271728e+02 +4.1000426692e+02 5.1487492899e+02 0.0000000000e+00 0.0000e+00 1.0000e+00
       13  1    1    2    0    0 +3.4562573071e+01 +3.0951271728e+02 +3.2600489622e+02 4.5085683535e+02 0.0000000000e+00 0.0000e+00 -1.0000e+00
<mgrwt>
<rscale>  0 0.62524263E+03</rscale>
<asrwt>0</asrwt>
<pdfrwt beam="1">  1        2 0.13090314E+00 0.62524263E+03</pdfrwt>
<pdfrwt beam="2">  1       -2 0.17670970E-01 0.62524263E+03</pdfrwt>
<totfact> 0.95203722E+02</totfact>
</mgrwt>
<rwgt>
<wgt id='morphing_basis_vector_1'> +1.8785855e-04 </wgt>
<wgt id='morphing_basis_vector_2'> +1.2874859e-04 </wgt>
<wgt id='morphing_basis_vector_3'> +1.4619634e-04 </wgt>
<wgt id='morphing_basis_vector_4'> +5.8679129e-05 </wgt>
<wgt id='morphing_basis_vector_5'> +1.0012777e-04 </wgt>
</rwgt>
</event>
<event>
 4      1 +5.9529000e-06 6.42504300e+02 7.81860800e-03 9.12759500e-02
        2 -1    0    0  501    0 +0.0000000000e+00 +0.0000000000e+00 +1.1551519025e+03 1.1551519025e+03 0.0000000000e+00 0.0000e+00 -1.0000e+00
       -2 -1    0    0    0  501 -0.0000000000e+00 -0.0000000000e+00 -8.9341448731e+01 8.9341448731e+01 0.0000000000e+00 0.0000e+00 1.0000e+00
      -13  1    1    2    0    0 +2.4285172786e+02 +4.0092992702e+01 +1.3303801205e+02 2.7979192705e+02 0.0000000000e+00 0.0000e+00 1.0000e+00
       13  1    1    2    0    0 -2.4285172786e+02 -4.0092992702e+01 +9.3277244169e+02 9.6470142415e+02 0.0000000000e+00 0.0000e+00 -1.0000e+00
<mgrwt>
<rscale>  0 0.64250430E+03</rscale>
<asrwt>0</asrwt>
<pdfrwt beam="1">  1        2 0.17771567E+00 0.64250430E+03</pdfrwt>
<pdfrwt beam="2">  1       -2 0.13744839E-01 0.64250430E+03</pdfrwt>
<totfact> 0.92757501E+02</totfact>
</mgrwt>
<rwgt>
<wgt id='morphing_basis_vector_1'> +1.9680319e-04 </wgt>
<wgt id='morphing_basis_vector_2'> +1.1425167e-04 </wgt>
<wgt id='morphing_basis_vector_3'> +1.6113523e-04 </wgt>
<wgt id='morphing_basis_vector_4'> +7.4650248e-05 </wgt>
<wgt id='morphing_basis_vector_5'> +1.1470650e-04 </wgt>
</rwgt>
</event>
<event>
 4      1 +5.9529000e-06 6.36000500e+02 7.81860800e-03 9.13832500e-02
        2 -1    0    0  501    0 +0.0000000000e+00 +0.0000000000e+00 +2.7207846216e+02 2.7207846216e+02 0.0000000000e+00 0.0000e+00 -1.0000e+00
       -2 -1    0    0    0  501 -0.0000000000e+00 -0.0000000000e+00 -3.7167273776e+02 3.7167273776e+02 0.0000000000e+00 0.0000e+00 1.0000e+00
      -13  1    1    2    0    0 +2.8909485754e+02 +7.0291428057e+01 -1.6344828503e+02 3.3945848552e+02 0.0000000000e+00 0.0000e+00 1.0000e+00
       13  1    1    2    0    0 -2.8909485754e+02 -7.0291428057e+01 +6.3854009430e+01 3.0429271439e+02 0.0000000000e+00 0.0000e+00 -1.0000e+00
<mgrwt>
<rscale>  0 0.63600046E+03</rscale>
<asrwt>0</asrwt>
<pdfrwt beam="1">  1        2 0.41858225E-01 0.63600046E+03</pdfrwt>
<pdfrwt beam="2">  1       -2 0.57180421E-01 0.63600046E+03</pdfrwt>
<totfact> 0.43580591E+02</totfact>
</mgrwt>
<rwgt>
<wgt id='morphing_basis_vector_1'> +1.9151965e-04 </wgt>
<wgt id='morphing_basis_vector_2'> +1.1413936e-04 </wgt>
<wgt id='morphing_basis_vector_3'> +1.5520580e-04 </wgt>
<wgt id='morphing_basis_vector_4'> +6.9992224e-05 </wgt>
<wgt id='morphing_basis_vector_5'> +1.0905274e-04 </wgt>
</rwgt>
</event>
<event>
 4      1 +5.9529000e-06 6.27734500e+02 7.81860800e-03 9.15215900e-02
        2 -1    0    0  501    0 +0.0000000000e+00 +0.0000000000e+00 +7.7195848284e+02 7.7195848284e+02 0.0000000000e+00 0.0000e+00 -1.0000e+00
       -2 -1    0    0    0  501 -0.0000000000e+00 -0.0000000000e+00 -1.2761393567e+02 1.2761393567e+02 0.0000000000e+00 0.0000e+00 1.0000e+00
      -13  1    1    2    0    0 -2.6480782899e+02 -4.2339180221e+01 +8.8463315815e+01 2.8238546478e+02 0.0000000000e+00 0.0000e+00 1.0000e+00
       13  1    1    2    0    0 +2.6480782899e+02 +4.2339180221e+01 +5.5588123136e+02 6.1718695372e+02 0.0000000000e+00 0.0000e+00 -1.0000e+00
<mgrwt>
<rscale>  0 0.62773453E+03</rscale>
<asrwt>0</asrwt>
<pdfrwt beam="1">  1        2 0.11876284E+00 0.62773453E+03</pdfrwt>
<pdfrwt beam="2">  1       -2 0.19632914E-01 0.62773453E+03</pdfrwt>
<totfact> 0.90643382E+02</totfact>
</mgrwt>
<rwgt>
<wgt id='morphing_basis_vector_1'> +1.8253447e-04 </wgt>
<wgt id='morphing_basis_vector_2'> +1.0635422e-04 </wgt>
<wgt id='morphing_basis_vector_3'> +1.4754871e-04 </wgt>
<wgt id='morphing_basis_vector_4'> +6.6481913e-05 </wgt>
<wgt id='morphing_basis_vector_5'> +1.0217108e-04 </wgt>
</rwgt>
</event>
<event>
 4      1 +5.9529000e-06 6.42561000e+02 7.81860800e-03 9.12750200e-02
        2 -1    0    0  501    0 +0.0000000000e+00 +0.0000000000e+00 +2.8067952791e+02 2.8067952791e+02 0.0000000000e+00 0.0000e+00 -1.0000e+00
       -2 -1    0    0    0  501 -0.0000000000e+00 -0.0000000000e+00 -3.6775446823e+02 3.6775446823e+02 0.0000000000e+00 0.0000e+00 1.0000e+00
      -13  1    1    2    0    0 -1.6999800726e+02 +1.0298330566e+02 -2.9826541616e+02 3.5842313290e+02 0.0000000000e+00 0.0000e+00 1.0000e+00
       13  1    1    2    0    0 +1.6999800726e+02 -1.0298330566e+02 +2.1119047584e+02 2.9001086325e+02 0.0000000000e+00 0.0000e+00 -1.0000e+00
<mgrwt>
<rscale>  0 0.64256097E+03</rscale>
<asrwt>0</asrwt>
<pdfrwt beam="1">  1        2 0.43181466E-01 0.64256097E+03</pdfrwt>
<pdfrwt beam="2">  1       -2 0.56577610E-01 0.64256097E+03</pdfrwt>
<totfact> 0.42978571E+02</totfact>
</mgrwt>
<rwgt>
<wgt id='morphing_basis_vector_1'> +1.9661694e-04 </wgt>
<wgt id='morphing_basis_vector_2'> +1.1353214e-04 </wgt>
<wgt id='morphing_basis_vector_3'> +1.6114764e-04 </wgt>
<wgt id='morphing_basis_vector_4'> +7.4901330e-05 </wgt>
<wgt id='morphing_basis_vector_5'> +1.1475885e-04 </wgt>
</rwgt>
</event>
<event>
 4      1 +5.9529000e-06 6.68323400e+02 7.81860800e-03 9.08627400e-02
        2 -1    0    0  501    0 +0.0000000000e+00 +0.0000000000e+00 +1.3115712701e+03 1.3115712701e+03 0.0000000000e+00 0.0000e+00 -1.0000e+00
       -2 -1    0    0    0  501 -0.0000000000e+00 -0.0000000000e+00 -8.5137605566e+01 8.5137605566e+01 0.0000000000e+00 0.0000e+00 1.0000e+00
      -13  1    1    2    0    0 +1.2227223050e+02 -1.7324544027e+02 +7.3481676091e+01 2.2441933439e+02 0.0000000000e+00 0.0000e+00 1.0000e+00
       13  1    1    2    0    0 -1.2227223050e+02 +1.7324544027e+02 +1.1529519884e+03 1.1722895412e+03 0.0000000000e+00 0.0000e+00 -1.0000e+00
<mgrwt>
<rscale>  0 0.66832339E+03</rscale>
<asrwt>0</asrwt>
<pdfrwt beam="1">  1        2 0.20178018E+00 0.66832339E+03</pdfrwt>
<pdfrwt beam="2">  1       -2 0.13098094E-01 0.66832339E+03</pdfrwt>
<totfact> 0.81471645E+02</totfact>
</mgrwt>
<rwgt>
<wgt id='morphing_basis_vector_1'> +2.2435201e-04 </wgt>
<wgt id='morphing_basis_vector_2'> +1.3065785e-04 </wgt>
<wgt id='morphing_basis_vector_3'> +1.8723980e-04 </wgt>
<wgt id='morphing_basis_vector_4'> +9.0233950e-05 </wgt>
<wgt id='morphing_basis_vector_5'> +1.3915487e-04 </wgt>
</rwgt>
</event>
<event>
 4      1 +5.9529000e-06 7.13286600e+02 7.81860800e-03 9.01876800e-02
        2 -1    0    0  501    0 +0.0000000000e+00 +0.0000000000e+00 +9.9655898492e+02 9.9655898492e+02 0.0000000000e+00 0.0000e+00 -1.0000e+00
       -2 -1    0    0    0  501 -0.0000000000e+00 -0.0000000000e+00 -1.2763362943e+02 1.2763362943e+02 0.0000000000e+00 0.0000e+00 1.0000e+00
      -13  1    1    2    0    0 -3.4347949707e+02 -9.5711169224e+01 +4.2270561054e+02 5.5300888419e+02 0.0000000000e+00 0.0000e+00 1.0000e+00
       13  1    1    2    0    0 +3.4347949707e+02 +9.5711169224e+01 +4.4621974495e+02 5.7118373016e+02 0.0000000000e+00 0.0000e+00 -1.0000e+00
<mgrwt>
<rscale>  0 0.71328659E+03</rscale>
<asrwt>0</asrwt>
<pdfrwt beam="1">  1        2 0.15331676E+00 0.71328659E+03</pdfrwt>
<pdfrwt beam="2">  1       -2 0.19635944E-01 0.71328659E+03</pdfrwt>
<totfact> 0.64352799E+02</totfact>
</mgrwt>
<rwgt>
<wgt id='morphing_basis_vector_1'> +2.8896565e-04 </wgt>
<wgt id='morphing_basis_vector_2'> +1.9259351e-04 </wgt>
<wgt id='morphing_basis_vector_3'> +2.4393630e-04 </wgt>
<wgt id='morphing_basis_vector_4'> +1.1271868e-04 </wgt>
<wgt id='morphing_basis_vector_5'> +1.8988999e-04 </wgt>
</rwgt>
</event>
<event>
 4      1 +5.9529000e-06 7.35656100e+02 7.81860800e-03 8.98708700e-02
        2 -1    0    0  501    0 +0.0000000000e+00 +0.0000000000e+00 +9.1879884605e+02 9.1879884605e+02 0.0000000000e+00 0.0000e+00 1.0000e+00
       -2 -1    0    0    0  501 -0.0000000000e+00 -0.0000000000e+00 -1.4725470941e+02 1.4725470941e+02 0.0000000000e+00 0.0000e+00 -1.0000e+00
      -13  1    1    2    0    0 +2.5092052729e+02 -2.1971843527e+02 +1.6099426481e+02 3.7034639882e+02 0.0000000000e+00 0.0000e+00 -1.0000e+00
       13  1    1    2    0    0 -2.5092052729e+02 +2.1971843527e+02 +6.1054987183e+02 6.9570715664e+02 0.0000000000e+00 0.0000e+00 1.0000e+00
<mgrwt>
<rscale>  0 0.73565605E+03</rscale>
<asrwt>0</asrwt>
<pdfrwt beam="1">  1        2 0.14135367E+00 0.73565605E+03</pdfrwt>
<pdfrwt beam="2">  1       -2 0.22654571E-01 0.73565605E+03</pdfrwt>
<totfact> 0.56641801E+02</totfact>
</mgrwt>
<rwgt>
<wgt id='morphing_basis_vector_1'> +3.1342311e-04 </wgt>
<wgt id='morphing_basis_vector_2'> +1.9051456e-04 </wgt>
<wgt id='morphing_basis_vector_3'> +2.7182757e-04 </wgt>
<wgt id='morphing_basis_vector_4'> +1.3901780e-04 </wgt>
<wgt id='morphing_basis_vector_5'> +2.1987000e-04 </wgt>
</rwgt>
</event>
<event>
 4      1 +5.9529000e-06 6.40283700e+02 7.81860800e-03 9.13124300e-02
        2 -1    0    0  501    0 +0.0000000000e+00 +0.0000000000e+00 +6.0279524986e+02 6.0279524986e+02 0.0000000000e+00 0.0000e+00 -1.0000e+00
       -2 -1    0    0    0  501 -0.0000000000e+00 -0.0000000000e+00 -1.7002589982e+02 1.7002589982e+02 0.0000000000e+00 0.0000e+00 1.0000e+00
      -13  1    1    2    0    0 -1.5649780460e+02 +1.8341566738e+02 -3.7825079382e+01 2.4405656417e+02 0.0000000000e+00 0.0000e+00 1.0000e+00
       13  1    1    2    0    0 +1.5649780460e+02 -1.8341566738e+02 +4.7059442942e+02 5.2876458551e+02 0.0000000000e+00 0.0000e+00 -1.0000e+00
<mgrwt>
<rscale>  0 0.64028370E+03</rscale>
<asrwt>0</asrwt>
<pdfrwt beam="1">  1        2 0.92737729E-01 0.64028370E+03</pdfrwt>
<pdfrwt beam="2">  1       -2 0.26157831E-01 0.64028370E+03</pdfrwt>
<totfact> 0.75336262E+02</totfact>
</mgrwt>
<rwgt>
<wgt id='morphing_basis_vector_1'> +1.9451155e-04 </wgt>
<wgt id='morphing_basis_vector_2'> +1.1275271e-04 </wgt>
<wgt id='morphing_basis_vector_3'> +1.5901984e-04 </wgt>
<wgt id='morphing_basis_vector_4'> +7.3458249e-05 </wgt>
<wgt id='morphing_basis_vector_5'> +1.1275708e-04 </wgt>
</rwgt>
</event>
<event>
 4      1 +5.9529000e-06 6.47087600e+02 7.81860800e-03 9.12011300e-02
        2 -1    0    0  501    0 +0.0000000000e+00 +0.0000000000e+00 +1.2270002445e+02 1.2270002445e+02 0.0000000000e+00 0.0000e+00 -1.0000e+00
       -2 -1    0    0    0  501 -0.0000000000e+00 -0.0000000000e+00 -8.5314242224e+02 8.5314242224e+02 0.0000000000e+00 0.0000e+00 1.0000e+00
      -13  1    1    2    0    0 +7.0290890424e+00 -3.1761544688e+02 -2.7285229322e+02 4.1878079481e+02 0.0000000000e+00 0.0000e+00 1.0000e+00
       13  1    1    2    0    0 -7.0290890424e+00 +3.1761544688e+02 -4.5759010457e+02 5.5706165188e+02 0.0000000000e+00 0.0000e+00 -1.0000e+00
<mgrwt>
<rscale>  0 0.64708762E+03</rscale>
<asrwt>0</asrwt>
<pdfrwt beam="1">  1        2 0.18876927E-01 0.64708762E+03</pdfrwt>
<pdfrwt beam="2">  1       -2 0.13125268E+00 0.64708762E+03</pdfrwt>
<totfact> 0.16118198E+02</totfact>
</mgrwt>
<rwgt>
<wgt id='morphing_basis_vector_1'> +2.1459036e-04 </wgt>
<wgt id='morphing_basis_vector_2'> +1.5756798e-04 </wgt>
<wgt id='morphing_basis_vector_3'> +1.6798815e-04 </wgt>
<wgt id='morphing_basis_vector_4'> +6.5298399e-05 </wgt>
<wgt id='morphing_basis_vector_5'> +1.1866356e-04 </wgt>
</rwgt>
</event>
<event>
 4      1 +5.9529000e-06 6.53462700e+02 7.81860800e-03 9.10981300e-02
        2 -1    0    0  501    0 +0.0000000000e+00 +0.0000000000e+00 +7.2960949779e+02 7.2960949779e+02 0.0000000000e+00 0.0000e+00 -1.0000e+00
       -2 -1    0    0    0  501 -0.0000000000e+00 -0.0000000000e+00 -1.4631575400e+02 1.4631575400e+02 0.0000000000e+00 0.0000e+00 1.0000e+00
      -13  1    1    2    0    0 +1.9972465593e+02 +4.0577054564e+01 -5.0668527296e+01 2.1000889315e+02 0.0000000000e+00 0.0000e+00 1.0000e+00
       13  1    1    2    0    0 -1.9972465593e+02 -4.0577054564e+01 +6.3396227109e+02 6.6591635864e+02 0.0000000000e+00 0.0000e+00 -1.0000e+00
<mgrwt>
<rscale>  0 0.65346267E+03</rscale>
<asrwt>0</asrwt>
<pdfrwt beam="1">  1        2 0.11224761E+00 0.65346267E+03</pdfrwt>
<pdfrwt beam="2">  1       -2 0.22510116E-01 0.65346267E+03</pdfrwt>
<totfact> 0.77319295E+02</totfact>
</mgrwt>
<rwgt>
<wgt id='morphing_basis_vector_1'> +2.0799571e-04 </wgt>
<wgt id='morphing_basis_vector_2'> +1.2053804e-04 </wgt>
<wgt id='morphing_basis_vector_3'> +1.7181638e-04 </wgt>
<wgt id='morphing_basis_vector_4'> +8.1139405e-05 </wgt>
<wgt id='morphing_basis_vector_5'> +1.2467956e-04 </wgt>
</rwgt>
</event>
<event>
 4      1 +5.9529000e-06 6.53614000e+02 7.81860800e-03 9.10957000e-02
        2 -1    0    0  501    0 +0.0000000000e+00 +0.0000000000e+00 +3.0203512103e+02 3.0203512103e+02 0.0000000000e+00 0.0000e+00 -1.0000e+00
       -2 -1    0    0    0  501 -0.0000000000e+00 -0.0000000000e+00 -3.5361059485e+02 3.5361059485e+02 0.0000000000e+00 0.0000e+00 1.0000e+00
      -13  1    1    2    0    0 -1.8518648331e+02 -2.6810072534e+02 -5.9420846682e-01 3.2584104347e+02 0.0000000000e+00 0.0000e+00 1.0000e+00
       13  1    1    2    0    0 +1.8518648331e+02 +2.6810072534e+02 -5.0981265350e+01 3.2980467241e+02 0.0000000000e+00 0.0000e+00 -1.0000e+00
<mgrwt>
<rscale>  0 0.65361401E+03</rscale>
<asrwt>0</asrwt>
<pdfrwt beam="1">  1        2 0.46466942E-01 0.65361401E+03</pdfrwt>
<pdfrwt beam="2">  1       -2 0.54401630E-01 0.65361401E+03</pdfrwt>
<totfact> 0.42799165E+02</totfact>
</mgrwt>
<rwgt>
<wgt id='morphing_basis_vector_1'> +2.1746443e-04 </wgt>
<wgt id='morphing_basis_vector_2'> +1.4941164e-04 </wgt>
<wgt id='morphing_basis_vector_3'> +1.7389832e-04 </wgt>
<wgt id='morphing_basis_vector_4'> +7.2563673e-05 </wgt>
<wgt id='morphing_basis_vector_5'> +1.2470072e-04 </wgt>
</rwgt>
</event>
<event>
 4      1 +5.9529000e-06 7.11653900e+02 7.81860800e-03 9.02112800e-02
        2 -1    0    0  501    0 +0.0000000000e+00 +0.0000000000e+00 +1.9882750805e+03 1.9882750805e+03 0.0000000000e+00 0.0000e+00 1.0000e+00
       -2 -1    0    0    0  501 -0.0000000000e+00 -0.0000000000e+00 -6.3679731433e+01 6.3679731433e+01 0.0000000000e+00 0.0000e+00 -1.0000e+00
      -13  1    1    2    0    0 +5.7553069646e+01 -2.8760717492e+02 +3.8144127482e+02 4.8117324222e+02 0.0000000000e+00 0.0000e+00 -1.0000e+00
       13  1    1    2    0    0 -5.7553069646e+01 +2.8760717492e+02 +1.5431540742e+03 1.5707815697e+03 0.0000000000e+00 0.0000e+00 1.0000e+00
<mgrwt>
<rscale>  0 0.71165391E+03</rscale>
<asrwt>0</asrwt>
<pdfrwt beam="1">  1        2 0.30588843E+00 0.71165391E+03</pdfrwt>
<pdfrwt beam="2">  1       -2 0.97968833E-02 0.71165391E+03</pdfrwt>
<totfact> 0.54616164E+02</totfact>
</mgrwt>
<rwgt>
<wgt id='morphing_basis_vector_1'> +2.7855358e-04 </wgt>
<wgt id='morphing_basis_vector_2'> +1.6592709e-04 </wgt>
<wgt id='morphing_basis_vector_3'> +2.3864683e-04 </wgt>
<wgt id='morphing_basis_vector_4'> +1.2032387e-04 </wgt>
<wgt id='morphing_basis_vector_5'> +1.8809230e-04 </wgt>
</rwgt>
</event>
<event>
 4      1 +5.9529000e-06 6.25255200e+02 7.81860800e-03 9.15635200e-02
        2 -1    0    0  501    0 +0.0000000000e+00 +0.0000000000e+00 +1.1119854378e+03 1.1119854378e+03 0.0000000000e+00 0.0000e+00 1.0000e+00
       -2 -1    0    0    0  501 -0.0000000000e+00 -0.0000000000e+00 -8.7893242016e+01 8.7893242016e+01 0.0000000000e+00 0.0000e+00 -1.0000e+00
      -13  1    1    2    0    0 -1.0449504264e+02 -2.9276076210e+02 +5.7592180308e+02 6.5445702764e+02 0.0000000000e+00 0.0000e+00 1.0000e+00
       13  1    1    2    0    0 +1.0449504264e+02 +2.9276076210e+02 +4.4817039266e+02 5.4542165213e+02 0.0000000000e+00 0.0000e+00 -1.0000e+00
<mgrwt>
<rscale>  0 0.62525516E+03</rscale>
<asrwt>0</asrwt>
<pdfrwt beam="1">  1        2 0.17107467E+00 0.62525516E+03</pdfrwt>
<pdfrwt beam="2">  1       -2 0.13522038E-01 0.62525516E+03</pdfrwt>
<totfact> 0.10098679E+03</totfact>
</mgrwt>
<rwgt>
<wgt id='morphing_basis_vector_1'> +1.8846231e-04 </wgt>
<wgt id='morphing_basis_vector_2'> +1.3058871e-04 </wgt>
<wgt id='morphing_basis_vector_3'> +1.4627369e-04 </wgt>
<wgt id='morphing_basis_vector_4'> +5.8182568e-05 </wgt>
<wgt id='morphing_basis_vector_5'> +1.0013564e-04 </wgt>
</rwgt>
</event>
<event>
 4      1 +5.9529000e-06 6.37305300e+02 7.81860800e-03 9.13616200e-02
        2 -1    0    0  501    0 +0.0000000000e+00 +0.0000000000e+00 +4.2149249102e+02 4.2149249102e+02 0.0000000000e+00 0.0000e+00 1.0000e+00
       -2 -1    0    0    0  501 -0.0000000000e+00 -0.0000000000e+00 -2.4090466116e+02 2.4090466116e+02 0.0000000000e+00 0.0000e+00 -1.0000e+00
      -13  1    1    2    0    0 +8.5589117987e+01 -4.7709578534e+01 -2.2485658706e+02 2.4527981112e+02 0.0000000000e+00 0.0000e+00 -1.0000e+00
       13  1    1    2    0    0 -8.5589117987e+01 +4.7709578534e+01 +4.0544441692e+02 4.1711734106e+02 0.0000000000e+00 0.0000e+00 1.0000e+00
<mgrwt>
<rscale>  0 0.63730528E+03</rscale>
<asrwt>0</asrwt>
<pdfrwt beam="1">  1        2 0.64844999E-01 0.63730528E+03</pdfrwt>
<pdfrwt beam="2">  1       -2 0.37062256E-01 0.63730528E+03</pdfrwt>
<totfact> 0.61184338E+02</totfact>
</mgrwt>
<rwgt>
<wgt id='morphing_basis_vector_1'> +1.9121450e-04 </wgt>
<wgt id='morphing_basis_vector_2'> +1.0997169e-04 </wgt>
<wgt id='morphing_basis_vector_3'> +1.5617817e-04 </wgt>
<wgt id='morphing_basis_vector_4'> +7.2108099e-05 </wgt>
<wgt id='morphing_basis_vector_5'> +1.1018093e-04 </wgt>
</rwgt>
</event>
<event>
 4      1 +5.9529000e-06 6.34289900e+02 7.81860800e-03 9.14117000e-02
        2 -1    0    0  501    0 +0.0000000000e+00 +0.0000000000e+00 +7.9292151960e+02 7.9292151960e+02 0.0000000000e+00 0.0000e+00 -1.0000e+00
       -2 -1    0    0    0  501 -0.0000000000e+00 -0.0000000000e+00 -1.2684851096e+02 1.2684851096e+02 0.0000000000e+00 0.0000e+00 1.0000e+00
      -13  1    1    2    0    0 +1.7768110937e+02 -3.6505730034e+00 -4.7859667379e+01 1.8405013196e+02 0.0000000000e+00 0.0000e+00 1.0000e+00
       13  1    1    2    0    0 -1.7768110937e+02 +3.6505730034e+00 +7.1393267602e+02 7.3571989860e+02 0.0000000000e+00 0.0000e+00 -1.0000e+00
<mgrwt>
<rscale>  0 0.63428988E+03</rscale>
<asrwt>0</asrwt>
<pdfrwt beam="1">  1        2 0.12198792E+00 0.63428988E+03</pdfrwt>
<pdfrwt beam="2">  1       -2 0.19515156E-01 0.63428988E+03</pdfrwt>
<totfact> 0.88495714E+02</totfact>
</mgrwt>
<rwgt>
<wgt id='morphing_basis_vector_1'> +1.8828444e-04 </wgt>
<wgt id='morphing_basis_vector_2'> +1.0832648e-04 </wgt>
<wgt id='morphing_basis_vector_3'> +1.5339972e-04 </wgt>
<wgt id='morphing_basis_vector_4'> +7.0438074e-05 </wgt>
<wgt id='morphing_basis_vector_5'> +1.0761213e-04 </wgt>
</rwgt>
</event>
<event>
 4      1 +5.9529000e-06 6.79916700e+02 7.81860800e-03 9.06835000e-02
        2 -1    0    0  501    0 +0.0000000000e+00 +0.0000000000e+00 +2.3061162670e+02 2.3061162670e+02 0.0000000000e+00 0.0000e+00 -1.0000e+00
       -2 -1    0    0    0  501 -0.0000000000e+00 -0.0000000000e+00 -5.0115283870e+02 5.0115283870e+02 0.0000000000e+00 0.0000e+00 1.0000e+00
      -13  1    1    2    0    0 -2.6110976871e+02 -2.1684394434e+02 -1.5603046298e+02 3.7355737564e+02 0.0000000000e+00 0.0000e+00 1.0000e+00
       13  1    1    2    0    0 +2.6110976871e+02 +2.1684394434e+02 -1.1451074903e+02 3.5820708977e+02 0.0000000000e+00 0.0000e+00 -1.0000e+00
<mgrwt>
<rscale>  0 0.67991668E+03</rscale>
<asrwt>0</asrwt>
<pdfrwt beam="1">  1        2 0.35478712E-01 0.67991668E+03</pdfrwt>
<pdfrwt beam="2">  1       -2 0.77100436E-01 0.67991668E+03</pdfrwt>
<totfact> 0.27983451E+02</totfact>
</mgrwt>
<rwgt>
<wgt id='morphing_basis_vector_1'> +2.4433348e-04 </wgt>
<wgt id='morphing_basis_vector_2'> +1.5914969e-04 </wgt>
<wgt id='morphing_basis_vector_3'> +2.0189358e-04 </wgt>
<wgt id='morphing_basis_vector_4'> +9.1293617e-05 </wgt>
<wgt id='morphing_basis_vector_5'> +1.5110275e-04 </wgt>
</rwgt>
</event>
<event>
 4      1 +5.9529000e-06 6.33990800e+02 7.81860800e-03 9.14166800e-02
        2 -1    0    0  501    0 +0.0000000000e+00 +0.0000000000e+00 +1.0432245914e+03 1.0432245914e+03 0.0000000000e+00 0.0000e+00 1.0000e+00
       -2 -1    0    0    0  501 -0.0000000000e+00 -0.0000000000e+00 -9.6322581524e+01 9.6322581524e+01 0.0000000000e+00 0.0000e+00 -1.0000e+00
      -13  1    1    2    0    0 -2.6148011842e+02 +1.2553264369e+02 +2.4357952360e+02 3.7876282986e+02 0.0000000000e+00 0.0000e+00 -1.0000e+00
       13  1    1    2    0    0 +2.6148011842e+02 -1.2553264369e+02 +7.0332248632e+02 7.6078434312e+02 0.0000000000e+00 0.0000e+00 1.0000e+00
<mgrwt>
<rscale>  0 0.63399081E+03</rscale>
<asrwt>0</asrwt>
<pdfrwt beam="1">  1        2 0.16049608E+00 0.63399081E+03</pdfrwt>
<pdfrwt beam="2">  1       -2 0.14818859E-01 0.63399081E+03</pdfrwt>
<totfact> 0.95776651E+02</totfact>
</mgrwt>
<rwgt>
<wgt id='morphing_basis_vector_1'> +1.8919014e-04 </wgt>
<wgt id='morphing_basis_vector_2'> +1.1186111e-04 </wgt>
<wgt id='morphing_basis_vector_3'> +1.5329558e-04 </wgt>
<wgt id='morphing_basis_vector_4'> +6.9228895e-05 </wgt>
<wgt id='morphing_basis_vector_5'> +1.0735184e-04 </wgt>
</rwgt>
</event>
<event>
 4      1 +5.9529000e-06 6.91283300e+02 7.81860800e-03 9.05113500e-02
        2 -1    0    0  501    0 +0.0000000000e+00 +0.0000000000e+00 +2.3075973153e+02 2.3075973153e+02 0.0000000000e+00 0.0000e+00 -1.0000e+00
       -2 -1    0    0    0  501 -0.0000000000e+00 -0.0000000000e+00 -5.1771660940e+02 5.1771660940e+02 0.0000000000e+00 0.0000e+00 1.0000e+00
      -13  1    1    2    0    0 +2.2164712819e+02 -2.2389288285e+02 +1.0455328514e+01 3.1522180496e+02 0.0000000000e+00 0.0000e+00 1.0000e+00
       13  1    1    2    0    0 -2.2164712819e+02 +2.2389288285e+02 -2.9741220639e+02 4.3325453597e+02 0.0000000000e+00 0.0000e+00 -1.0000e+00
<mgrwt>
<rscale>  0 0.69128329E+03</rscale>
<asrwt>0</asrwt>
<pdfrwt beam="1">  1        2 0.35501497E-01 0.69128329E+03</pdfrwt>
<pdfrwt beam="2">  1       -2 0.79648709E-01 0.69128329E+03</pdfrwt>
<totfact> 0.25987974E+02</totfact>
</mgrwt>
<rwgt>
<wgt id='morphing_basis_vector_1'> +2.8591430e-04 </wgt>
<wgt id='morphing_basis_vector_2'> +2.5338777e-04 </wgt>
<wgt id='morphing_basis_vector_3'> +2.2425627e-04 </wgt>
<wgt id='morphing_basis_vector_4'> +7.0386055e-05 </wgt>
<wgt id='morphing_basis_vector_5'> +1.6294795e-04 </wgt>
</rwgt>
</event>
<event>
 4      1 +5.9529000e-06 6.31517400e+02 7.81860800e-03 9.14580000e-02
        2 -1    0    0  501    0 +0.0000000000e+00 +0.0000000000e+00 +1.2597203034e+03 1.2597203034e+03 0.0000000000e+00 0.0000e+00 1.0000e+00
       -2 -1    0    0    0  501 -0.0000000000e+00 -0.0000000000e+00 -7.9147381102e+01 7.9147381102e+01 0.0000000000e+00 0.0000e+00 -1.0000e+00
      -13  1    1    2    0    0 +2.9092497298e+02 +6.6445065281e+01 +8.0908939983e+02 8.6236763826e+02 0.0000000000e+00 0.0000e+00 1.0000e+00
       13  1    1    2    0    0 -2.9092497298e+02 -6.6445065281e+01 +3.7148352248e+02 4.7650004625e+02 0.0000000000e+00 0.0000e+00 -1.0000e+00
<mgrwt>
<rscale>  0 0.63151742E+03</rscale>
<asrwt>0</asrwt>
<pdfrwt beam="1">  1        2 0.19380311E+00 0.63151742E+03</pdfrwt>
<pdfrwt beam="2">  1       -2 0.12176521E-01 0.63151742E+03</pdfrwt>
<totfact> 0.98060827E+02</totfact>
</mgrwt>
<rwgt>
<wgt id='morphing_basis_vector_1'> +2.0491219e-04 </wgt>
<wgt id='morphing_basis_vector_2'> +1.6654586e-04 </wgt>
<wgt id='morphing_basis_vector_3'> +1.5344964e-04 </wgt>
<wgt id='morphing_basis_vector_4'> +5.2188581e-05 </wgt>
<wgt id='morphing_basis_vector_5'> +1.0517703e-04 </wgt>
</rwgt>
</event>
<event>
 4      1 +5.9529000e-06 6.26053400e+02 7.81860800e-03 9.15500000e-02
        2 -1    0    0  501    0 +0.0000000000e+00 +0.0000000000e+00 +1.4229570249e+02 1.4229570249e+02 0.0000000000e+00 0.0000e+00 -1.0000e+00
       -2 -1    0    0    0  501 -0.0000000000e+00 -0.0000000000e+00 -6.8860625821e+02 6.8860625821e+02 0.0000000000e+00 0.0000e+00 1.0000e+00
      -13  1    1    2    0    0 -2.1156606966e+02 -1.0905481610e+02 -5.4298174522e+02 5.9285945247e+02 0.0000000000e+00 0.0000e+00 1.0000e+00
       13  1    1    2    0    0 +2.1156606966e+02 +1.0905481610e+02 -3.3288105000e+00 2.3804250823e+02 0.0000000000e+00 0.0000e+00 -1.0000e+00
<mgrwt>
<rscale>  0 0.62605339E+03</rscale>
<asrwt>0</asrwt>
<pdfrwt beam="1">  1        2 0.21891647E-01 0.62605339E+03</pdfrwt>
<pdfrwt beam="2">  1       -2 0.10593942E+00 0.62605339E+03</pdfrwt>
<totfact> 0.23414724E+02</totfact>
</mgrwt>
<rwgt>
<wgt id='morphing_basis_vector_1'> +1.8055537e-04 </wgt>
<wgt id='morphing_basis_vector_2'> +1.0421765e-04 </wgt>
<wgt id='morphing_basis_vector_3'> +1.4601210e-04 </wgt>
<wgt id='morphing_basis_vector_4'> +6.5944705e-05 </wgt>
<wgt id='morphing_basis_vector_5'> +1.0080986e-04 </wgt>
</rwgt>
</event>
<event>
 4      1 +5.9529000e-06 7.47878200e+02 7.81860800e-03 8.97027900e-02
        2 -1    0    0  501    0 +0.0000000000e+00 +0.0000000000e+00 +9.8642330202e+02 9.8642330202e+02 0.0000000000e+00 0.0000e+00 -1.0000e+00
       -2 -1    0    0    0  501 -0.0000000000e+00 -0.0000000000e+00 -1.4175501510e+02 1.4175501510e+02 0.0000000000e+00 0.0000e+00 1.0000e+00
      -13  1    1    2    0    0 -1.2410342011e+02 -3.1511209705e+02 +1.8318413453e+02 3.8503729655e+02 0.0000000000e+00 0.0000e+00 1.0000e+00
       13  1    1    2    0    0 +1.2410342011e+02 +3.1511209705e+02 +6.6148415239e+02 7.4314102057e+02 0.0000000000e+00 0.0000e+00 -1.0000e+00
<mgrwt>
<rscale>  0 0.74787820E+03</rscale>
<asrwt>0</asrwt>
<pdfrwt beam="1">  1        2 0.15175743E+00 0.74787820E+03</pdfrwt>
<pdfrwt beam="2">  1       -2 0.21808464E-01 0.74787820E+03</pdfrwt>
<totfact> 0.54704880E+02</totfact>
</mgrwt>
<rwgt>
<wgt id='morphing_basis_vector_1'> +3.3189157e-04 </wgt>
<wgt id='morphing_basis_vector_2'> +2.0233244e-04 </wgt>
<wgt id='morphing_basis_vector_3'> +2.8981116e-04 </wgt>
<wgt id='morphing_basis_vector_4'> +1.4992968e-04 </wgt>
<wgt id='morphing_basis_vector_5'> +2.3745864e-04 </wgt>
</rwgt>
</event>
<event>
 4      1 +5.9529000e-06 6.74956300e+02 7.81860800e-03 9.07597300e-02
        2 -1    0    0  501    0 +0.0000000000e+00 +0.0000000000e+00 +6.1447391621e+02 6.1447391621e+02 0.0000000000e+00 0.0000e+00 1.0000e+00
       -2 -1    0    0    0  501 -0.0000000000e+00 -0.0000000000e+00 -1.8534798184e+02 1.8534798184e+02 0.0000000000e+00 0.0000e+00 -1.0000e+00
      -13  1    1    2    0    0 +1.1458717056e+02 +1.9538785113e+02 +5.1101355027e+02 5.5896465057e+02 0.0000000000e+00 0.0000e+00 1.0000e+00
       13  1    1    2    0    0 -1.1458717056e+02 -1.9538785113e+02 -8.1887615896e+01 2.4085724748e+02 0.0000000000e+00 0.0000e+00 -1.0000e+00
<mgrwt>
<rscale>  0 0.67495630E+03</rscale>
<asrwt>0</asrwt>
<pdfrwt beam="1">  1        2 0.94534448E-01 0.67495630E+03</pdfrwt>
<pdfrwt beam="2">  1       -2 0.28515074E-01 0.67495630E+03</pdfrwt>
<totfact> 0.63367587E+02</totfact>
</mgrwt>
<rwgt>
<wgt id='morphing_basis_vector_1'> +3.0132975e-04 </wgt>
<wgt id='morphing_basis_vector_2'> +3.4951881e-04 </wgt>
<wgt id='morphing_basis_vector_3'> +2.1351077e-04 </wgt>
<wgt id='morphing_basis_vector_4'> +2.5975550e-05 </wgt>
<wgt id='morphing_basis_vector_5'> +1.4461684e-04 </wgt>
</rwgt>
</event>
<event>
 4      1 +5.9529000e-06 7.29890800e+02 7.81860800e-03 8.99513700e-02
        2 -1    0    0  501    0 +0.0000000000e+00 +0.0000000000e+00 +4.0336710855e+02 4.0336710855e+02 0.0000000000e+00 0.0000e+00 1.0000e+00
       -2 -1    0    0    0  501 -0.0000000000e+00 -0.0000000000e+00 -3.3018345926e+02 3.3018345926e+02 0.0000000000e+00 0.0000e+00 -1.0000e+00
      -13  1    1    2    0    0 -2.2191661391e+02 +1.1712408657e+02 -2.2972764878e+02 3.4020556697e+02 0.0000000000e+00 0.0000e+00 -1.0000e+00
       13  1    1    2    0    0 +2.2191661391e+02 -1.1712408657e+02 +3.0291129808e+02 3.9334500084e+02 0.0000000000e+00 0.0000e+00 1.0000e+00
<mgrwt>
<rscale>  0 0.72989081E+03</rscale>
<asrwt>0</asrwt>
<pdfrwt beam="1">  1        2 0.62056478E-01 0.72989081E+03</pdfrwt>
<pdfrwt beam="2">  1       -2 0.50797455E-01 0.72989081E+03</pdfrwt>
<totfact> 0.35307824E+02</totfact>
</mgrwt>
<rwgt>
<wgt id='morphing_basis_vector_1'> +3.0338017e-04 </wgt>
<wgt id='morphing_basis_vector_2'> +1.8015643e-04 </wgt>
<wgt id='morphing_basis_vector_3'> +2.6295226e-04 </wgt>
<wgt id='morphing_basis_vector_4'> +1.3588929e-04 </wgt>
<wgt id='morphing_basis_vector_5'> +2.1196304e-04 </wgt>
</rwgt>
</event>
<event>
 4      1 +5.9529000e-06 7.07946700e+02 7.81860800e-03 9.02651100e-02
        2 -1    0    0  501    0 +0.0000000000e+00 +0.0000000000e+00 +9.4633482058e+02 9.4633482058e+02 0.0000000000e+00 0.0000e+00 -1.0000e+00
       -2 -1    0    0    0  501 -0.0000000000e+00 -0.0000000000e+00 -1.3240253824e+02 1.3240253824e+02 0.0000000000e+00 0.0000e+00 1.0000e+00
      -13  1    1    2    0    0 -9.4334592675e+01 +1.3658031558e+02 -6.9421039272e+01 1.7992353563e+02 0.0000000000e+00 0.0000e+00 1.0000e+00
       13  1    1    2    0    0 +9.4334592675e+01 -1.3658031558e+02 +8.8335332161e+02 8.9881382320e+02 0.0000000000e+00 0.0000e+00 -1.0000e+00
<mgrwt>
<rscale>  0 0.70794670E+03</rscale>
<asrwt>0</asrwt>
<pdfrwt beam="1">  1        2 0.14558997E+00 0.70794670E+03</pdfrwt>
<pdfrwt beam="2">  1       -2 0.20369622E-01 0.70794670E+03</pdfrwt>
<totfact> 0.65090682E+02</totfact>
</mgrwt>
<rwgt>
<wgt id='morphing_basis_vector_1'> +2.7283965e-04 </wgt>
<wgt id='morphing_basis_vector_2'> +1.6046797e-04 </wgt>
<wgt id='morphing_basis_vector_3'> +2.3359673e-04 </wgt>
<wgt id='morphing_basis_vector_4'> +1.1825937e-04 </wgt>
<wgt id='morphing_basis_vector_5'> +1.8351135e-04 </wgt>
</rwgt>
</event>
<event>
 4      1 +5.9529000e-06 6.87980800e+02 7.81860800e-03 9.05610100e-02
        2 -1    0    0  501    0 +0.0000000000e+00 +0.0000000000e+00 +6.9280857926e+02 6.9280857926e+02 0.0000000000e+00 0.0000e+00 -1.0000e+00
       -2 -1    0    0    0  501 -0.0000000000e+00 -0.0000000000e+00 -1.7079664595e+02 1.7079664595e+02 0.0000000000e+00 0.0000e+00 1.0000e+00
      -13  1    1    2    0    0 -7.6189946511e+01 -3.2866786232e+02 +3.4523025888e+02 4.8271254730e+02 0.0000000000e+00 0.0000e+00 1.0000e+00
       13  1    1    2    0    0 +7.6189946511e+01 +3.2866786232e+02 +1.7678167442e+02 3.8089267791e+02 0.0000000000e+00 0.0000e+00 -1.0000e+00
<mgrwt>
<rscale>  0 0.68798076E+03</rscale>
<asrwt>0</asrwt>
<pdfrwt beam="1">  1        2 0.10658593E+00 0.68798076E+03</pdfrwt>
<pdfrwt beam="2">  1       -2 0.26276407E-01 0.68798076E+03</pdfrwt>
<totfact> 0.63233405E+02</totfact>
</mgrwt>
<rwgt>
<wgt id='morphing_basis_vector_1'> +2.6431672e-04 </wgt>
<wgt id='morphing_basis_vector_2'> +1.9681804e-04 </wgt>
<wgt id='morphing_basis_vector_3'> +2.1453576e-04 </wgt>
<wgt id='morphing_basis_vector_4'> +8.6234253e-05 </wgt>
<wgt id='morphing_basis_vector_5'> +1.5967651e-04 </wgt>
</rwgt>
</event>
<event>
 4      1 +5.9529000e-06 6.81725600e+02 7.81860800e-03 9.06558700e-02
        2 -1    0    0  501    0 +0.0000000000e+00 +0.0000000000e+00 +4.7089068373e+02 4.7089068373e+02 0.0000000000e+00 0.0000e+00 1.0000e+00
       -2 -1    0    0    0  501 -0.0000000000e+00 -0.0000000000e+00 -2.4673972009e+02 2.4673972009e+02 0.0000000000e+00 0.0000e+00 -1.0000e+00
      -13  1    1    2    0    0 +1.5868348415e+01 +3.2407831062e+02 +2.1290028226e+00 3.2447355601e+02 0.0000000000e+00 0.0000e+00 -1.0000e+00
       13  1    1    2    0    0 -1.5868348415e+01 -3.2407831062e+02 +2.2202196082e+02 3.9315684781e+02 0.0000000000e+00 0.0000e+00 1.0000e+00
<mgrwt>
<rscale>  0 0.68172556E+03</rscale>
<asrwt>0</asrwt>
<pdfrwt beam="1">  1        2 0.72444720E-01 0.68172556E+03</pdfrwt>
<pdfrwt beam="2">  1       -2 0.37959957E-01 0.68172556E+03</pdfrwt>
<totfact> 0.51611942E+02</totfact>
</mgrwt>
<rwgt>
<wgt id='morphing_basis_vector_1'> +2.4231685e-04 </wgt>
<wgt id='morphing_basis_vector_2'> +1.4761009e-04 </wgt>
<wgt id='morphing_basis_vector_3'> +2.0274833e-04 </wgt>
<wgt id='morphing_basis_vector_4'> +9.6685606e-05 </wgt>
<wgt id='morphing_basis_vector_5'> +1.5314046e-04 </wgt>
</rwgt>
</event>
<event>
 4      1 +5.9529000e-06 6.81448800e+02 7.81860800e-03 9.06600900e-02
        2 -1    0    0  501    0 +0.0000000000e+00 +0.0000000000e+00 +1.8730082980e+03 1.8730082980e+03 0.0000000000e+00 0.0000e+00 1.0000e+00
       -2 -1    0    0    0  501 -0.0000000000e+00 -0.0000000000e+00 -6.1982172687e+01 6.1982172687e+01 0.0000000000e+00 0.0000e+00 -1.0000e+00
      -13  1    1    2    0    0 -2.8699751525e+02 -1.2358486906e+02 +1.2912322069e+03 1.3285034459e+03 0.0000000000e+00 0.0000e+00 -1.0000e+00
       13  1    1    2    0    0 +2.8699751525e+02 +1.2358486906e+02 +5.1979391841e+02 6.0648702479e+02 0.0000000000e+00 0.0000e+00 1.0000e+00
<mgrwt>
<rscale>  0 0.68144882E+03</rscale>
<asrwt>0</asrwt>
<pdfrwt beam="1">  1        2 0.28815508E+00 0.68144882E+03</pdfrwt>
<pdfrwt beam="2">  1       -2 0.95357203E-02 0.68144882E+03</pdfrwt>
<totfact> 0.66065755E+02</totfact>
</mgrwt>
<rwgt>
<wgt id='morphing_basis_vector_1'> +2.7103753e-04 </wgt>
<wgt id='morphing_basis_vector_2'> +2.3706314e-04 </wgt>
<wgt id='morphing_basis_vector_3'> +2.1098222e-04 </wgt>
<wgt id='morphing_basis_vector_4'> +6.7298762e-05 </wgt>
<wgt id='morphing_basis_vector_5'> +1.5221095e-04 </wgt>
</rwgt>
</event>
<event>
 4      1 +5.9529000e-06 6.58095500e+02 7.81860800e-03 9.10240500e-02
        2 -1    0    0  501    0 +0.0000000000e+00 +0.0000000000e+00 +1.1899457563e+03 1.1899457563e+03 0.0000000000e+00 0.0000e+00 -1.0000e+00
       -2 -1    0    0    0  501 -0.0000000000e+00 -0.0000000000e+00 -9.0989382274e+01 9.0989382274e+01 0.0000000000e+00 0.0000e+00 1.0000e+00
      -13  1    1    2    0    0 +1.0690100874e+02 +2.0560412409e+02 +9.4781972083e+01 2.5036873556e+02 0.0000000000e+00 0.0000e+00 1.0000e+00
       13  1    1    2    0    0 -1.0690100874e+02 -2.0560412409e+02 +1.0041744020e+03 1.0305664030e+03 0.0000000000e+00 0.0000e+00 -1.0000e+00
<mgrwt>
<rscale>  0 0.65809552E+03</rscale>
<asrwt>0</asrwt>
<pdfrwt beam="1">  1        2 0.18306857E+00 0.65809552E+03</pdfrwt>
<pdfrwt beam="2">  1       -2 0.13998367E-01 0.65809552E+03</pdfrwt>
<totfact> 0.85934198E+02</totfact>
</mgrwt>
<rwgt>
<wgt id='morphing_basis_vector_1'> +2.1309662e-04 </wgt>
<wgt id='morphing_basis_vector_2'> +1.2395504e-04 </wgt>
<wgt id='morphing_basis_vector_3'> +1.7653792e-04 </wgt>
<wgt id='morphing_basis_vector_4'> +8.3798427e-05 </wgt>
<wgt id='morphing_basis_vector_5'> +1.2907092e-04 </wgt>
</rwgt>
</event>
<event>
 4      1 +5.9529000e-06 7.30137900e+02 7.81860800e-03 8.99479100e-02
        2 -1    0    0  501    0 +0.0000000000e+00 +0.0000000000e+00 +9.5954589816e+02 9.5954589816e+02 0.0000000000e+00 0.0000e+00 -1.0000e+00
       -2 -1    0    0    0  501 -0.0000000000e+00 -0.0000000000e+00 -1.3889415882e+02 1.3889415882e+02 0.0000000000e+00 0.0000e+00 1.0000e+00
      -13  1    1    2    0    0 +6.1679110239e+01 -2.0942002480e+02 -2.9868572343e+01 2.2034788640e+02 0.0000000000e+00 0.0000e+00 1.0000e+00
       13  1    1    2    0    0 -6.1679110239e+01 +2.0942002480e+02 +8.5052031169e+02 8.7809217058e+02 0.0000000000e+00 0.0000e+00 -1.0000e+00
<mgrwt>
<rscale>  0 0.73013785E+03</rscale>
<asrwt>0</asrwt>
<pdfrwt beam="1">  1        2 0.14762244E+00 0.73013785E+03</pdfrwt>
<pdfrwt beam="2">  1       -2 0.21368333E-01 0.73013785E+03</pdfrwt>
<totfact> 0.58888071E+02</totfact>
</mgrwt>
<rwgt>
<wgt id='morphing_basis_vector_1'> +3.0358399e-04 </wgt>
<wgt id='morphing_basis_vector_2'> +1.7991240e-04 </wgt>
<wgt id='morphing_basis_vector_3'> +2.6323165e-04 </wgt>
<wgt id='morphing_basis_vector_4'> +1.3627140e-04 </wgt>
<wgt id='morphing_basis_vector_5'> +2.1230567e-04 </wgt>
</rwgt>
</event>
<event>
 4      1 +5.9529000e-06 6.52258300e+02 7.81860800e-03 9.11174900e-02
        2 -1    0    0  501    0 +0.0000000000e+00 +0.0000000000e+00 +9.6964639611e+02 9.6964639611e+02 0.0000000000e+00 0.0000e+00 1.0000e+00
       -2 -1    0    0    0  501 -0.0000000000e+00 -0.0000000000e+00 -1.0968969908e+02 1.0968969908e+02 0.0000000000e+00 0.0000e+00 -1.0000e+00
      -13  1    1    2    0    0 -2.4265007355e+02 -1.8574127551e+02 +2.4144122313e+02 3.8945185049e+02 0.0000000000e+00 0.0000e+00 -1.0000e+00
       13  1    1    2    0    0 +2.4265007355e+02 +1.8574127551e+02 +6.1851547391e+02 6.8988424470e+02 0.0000000000e+00 0.0000e+00 1.0000e+00
<mgrwt>
<rscale>  0 0.65225830E+03</rscale>
<asrwt>0</asrwt>
<pdfrwt beam="1">  1        2 0.14917636E+00 0.65225830E+03</pdfrwt>
<pdfrwt beam="2">  1       -2 0.16875339E-01 0.65225830E+03</pdfrwt>
<totfact> 0.86026796E+02</totfact>
</mgrwt>
<rwgt>
<wgt id='morphing_basis_vector_1'> +2.0838005e-04 </wgt>
<wgt id='morphing_basis_vector_2'> +1.2490045e-04 </wgt>
<wgt id='morphing_basis_vector_3'> +1.7094964e-04 </wgt>
<wgt id='morphing_basis_vector_4'> +7.8887022e-05 </wgt>
<wgt id='morphing_basis_vector_5'> +1.2353415e-04 </wgt>
</rwgt>
</event>
<event>
 4      1 +5.9529000e-06 6.61507300e+02 7.81860800e-03 9.09699000e-02
        2 -1    0    0  501    0 +0.0000000000e+00 +0.0000000000e+00 +8.2037014373e+02 8.2037014373e+02 0.0000000000e+00 0.0000e+00 -1.0000e+00
       -2 -1    0    0    0  501 -0.0000000000e+00 -0.0000000000e+00 -1.3335195767e+02 1.3335195767e+02 0.0000000000e+00 0.0000e+00 1.0000e+00
      -13  1    1    2    0    0 -2.5941079433e+02 -1.8356603077e+02 +2.1131224434e+02 3.8163243111e+02 0.0000000000e+00 0.0000e+00 1.0000e+00
       13  1    1    2    0    0 +2.5941079433e+02 +1.8356603077e+02 +4.7570594172e+02 5.7208967029e+02 0.0000000000e+00 0.0000e+00 -1.0000e+00
<mgrwt>
<rscale>  0 0.66150726E+03</rscale>
<asrwt>0</asrwt>
<pdfrwt beam="1">  1        2 0.12621079E+00 0.66150726E+03</pdfrwt>
<pdfrwt beam="2">  1       -2 0.20515686E-01 0.66150726E+03</pdfrwt>
<totfact> 0.77906632E+02</totfact>
</mgrwt>
<rwgt>
<wgt id='morphing_basis_vector_1'> +2.1915511e-04 </wgt>
<wgt id='morphing_basis_vector_2'> +1.3343726e-04 </wgt>
<wgt id='morphing_basis_vector_3'> +1.8060222e-04 </wgt>
<wgt id='morphing_basis_vector_4'> +8.3662823e-05 </wgt>
<wgt id='morphing_basis_vector_5'> +1.3233880e-04 </wgt>
</rwgt>
</event>
<event>
 4      1 +5.9529000e-06 7.08495900e+02 7.81860800e-03 9.02571100e-02
        2 -1    0    0  501    0 +0.0000000000e+00 +0.0000000000e+00 +4.1241240595e+02 4.1241240595e+02 0.0000000000e+00 0.0000e+00 1.0000e+00
       -2 -1    0    0    0  501 -0.0000000000e+00 -0.0000000000e+00 -3.0428667349e+02 3.0428667349e+02 0.0000000000e+00 0.0000e+00 -1.0000e+00
      -13  1    1    2    0    0 +1.7085881855e+02 -3.1023545571e+02 +4.6710615531e+01 3.5724033292e+02 0.0000000000e+00 0.0000e+00 -1.0000e+00
       13  1    1    2    0    0 -1.7085881855e+02 +3.1023545571e+02 +6.1415116928e+01 3.5945874652e+02 0.0000000000e+00 0.0000e+00 1.0000e+00
<mgrwt>
<rscale>  0 0.70849587E+03</rscale>
<asrwt>0</asrwt>
<pdfrwt beam="1">  1        2 0.63448062E-01 0.70849587E+03</pdfrwt>
<pdfrwt beam="2">  1       -2 0.46813334E-01 0.70849587E+03</pdfrwt>
<totfact> 0.40389744E+02</totfact>
</mgrwt>
<rwgt>
<wgt id='morphing_basis_vector_1'> +2.8235341e-04 </wgt>
<wgt id='morphing_basis_vector_2'> +1.8798915e-04 </wgt>
<wgt id='morphing_basis_vector_3'> +2.3756925e-04 </wgt>
<wgt id='morphing_basis_vector_4'> +1.0926944e-04 </wgt>
<wgt id='morphing_basis_vector_5'> +1.8392700e-04 </wgt>
</rwgt>
</event>
<event>
 4      1 +5.9529000e-06 6.30582700e+02 7.81860800e-03 9.14736700e-02
        2 -1    0    0  501    0 +0.0000000000e+00 +0.0000000000e+00 +3.3984826769e+02 3.3984826769e+02 0.0000000000e+00 0.0000e+00 1.0000e+00
       -2 -1    0    0    0  501 -0.0000000000e+00 -0.0000000000e+00 -2.9250884177e+02 2.9250884177e+02 0.0000000000e+00 0.0000e+00 -1.0000e+00
      -13  1    1    2    0    0 +5.0692916250e+01 -6.1565217177e+01 +3.2956673202e+02 3.3907857287e+02 0.0000000000e+00 0.0000e+00 1.0000e+00
       13  1    1    2    0    0 -5.0692916250e+01 +6.1565217177e+01 -2.8222730610e+02 2.9327853660e+02 0.0000000000e+00 0.0000e+00 -1.0000e+00
<mgrwt>
<rscale>  0 0.63058266E+03</rscale>
<asrwt>0</asrwt>
<pdfrwt beam="1">  1        2 0.52284349E-01 0.63058266E+03</pdfrwt>
<pdfrwt beam="2">  1       -2 0.45001360E-01 0.63058266E+03</pdfrwt>
<totfact> 0.54293438E+02</totfact>
</mgrwt>
<rwgt>
<wgt id='morphing_basis_vector_1'> +2.5119521e-04 </wgt>
<wgt id='morphing_basis_vector_2'> +3.1208854e-04 </wgt>
<wgt id='morphing_basis_vector_3'> +1.5867958e-04 </wgt>
<wgt id='morphing_basis_vector_4'> +1.0931967e-05 </wgt>
<wgt id='morphing_basis_vector_5'> +1.0415139e-04 </wgt>
</rwgt>
</event>
<event>
 4      1 +5.9529000e-06 6.47717500e+02 7.81860800e-03 9.11909000e-02
        2 -1    0    0  501    0 +0.0000000000e+00 +0.0000000000e+00 +5.5080779159e+02 5.5080779159e+02 0.0000000000e+00 0.0000e+00 -1.0000e+00
       -2 -1    0    0    0  501 -0.0000000000e+00 -0.0000000000e+00 -1.9041941052e+02 1.9041941052e+02 0.0000000000e+00 0.0000e+00 1.0000e+00
      -13  1    1    2    0    0 +1.3370665830e+02 -1.5774938283e+02 -1.0503171664e+02 2.3193533529e+02 0.0000000000e+00 0.0000e+00 1.0000e+00
       13  1    1    2    0    0 -1.3370665830e+02 +1.5774938283e+02 +4.6542009770e+02 5.0929186681e+02 0.0000000000e+00 0.0000e+00 -1.0000e+00
<mgrwt>
<rscale>  0 0.64771752E+03</rscale>
<asrwt>0</asrwt>
<pdfrwt beam="1">  1        2 0.84739660E-01 0.64771752E+03</pdfrwt>
<pdfrwt beam="2">  1       -2 0.29295294E-01 0.64771752E+03</pdfrwt>
<totfact> 0.68717492E+02</totfact>
</mgrwt>
<rwgt>
<wgt id='morphing_basis_vector_1'> +2.0195259e-04 </wgt>
<wgt id='morphing_basis_vector_2'> +1.1685711e-04 </wgt>
<wgt id='morphing_basis_vector_3'> +1.6613063e-04 </wgt>
<wgt id='morphing_basis_vector_4'> +7.7791157e-05 </wgt>
<wgt id='morphing_basis_vector_5'> +1.1937918e-04 </wgt>
</rwgt>
</event>
<event>
 4      1 +5.9529000e-06 6.26804500e+02 7.81860800e-03 9.15373000e-02
        2 -1    0    0  501    0 +0.0000000000e+00 +0.0000000000e+00 +6.4912478592e+02 6.4912478592e+02 0.0000000000e+00 0.0000e+00 -1.0000e+00
       -2 -1    0    0    0  501 -0.0000000000e+00 -0.0000000000e+00 -1.5131291033e+02 1.5131291033e+02 0.0000000000e+00 0.0000e+00 1.0000e+00
      -13  1    1    2    0    0 -2.9811083975e+02 +6.6738105783e+01 +1.5954316355e+02 3.4464194256e+02 0.0000000000e+00 0.0000e+00 1.0000e+00
       13  1    1    2    0    0 +2.9811083975e+02 -6.6738105783e+01 +3.3826871205e+02 4.5579575370e+02 0.0000000000e+00 0.0000e+00 -1.0000e+00
<mgrwt>
<rscale>  0 0.62680447E+03</rscale>
<asrwt>0</asrwt>
<pdfrwt beam="1">  1        2 0.99865350E-01 0.62680447E+03</pdfrwt>
<pdfrwt beam="2">  1       -2 0.23278910E-01 0.62680447E+03</pdfrwt>
<totfact> 0.84230793E+02</totfact>
</mgrwt>
<rwgt>
<wgt id='morphing_basis_vector_1'> +1.8361323e-04 </wgt>
<wgt id='morphing_basis_vector_2'> +1.1190626e-04 </wgt>
<wgt id='morphing_basis_vector_3'> +1.4695084e-04 </wgt>
<wgt id='morphing_basis_vector_4'> +6.4327160e-05 </wgt>
<wgt id='morphing_basis_vector_5'> +1.0140742e-04 </wgt>
</rwgt>
</event>
<event>
 4      1 +5.9529000e-06 7.06886900e+02 7.81860800e-03 9.02805600e-02
        2 -1    0    0  501    0 +0.0000000000e+00 +0.0000000000e+00 +6.7633167587e+02 6.7633167587e+02 0.0000000000e+00 0.0000e+00 1.0000e+00
       -2 -1    0    0    0  501 -0.0000000000e+00 -0.0000000000e+00 -1.8470563712e+02 1.8470563712e+02 0.0000000000e+00 0.0000e+00 -1.0000e+00
      -13  1    1    2    0    0 +3.7962341181e-01 -3.2431110629e+02 +4.1696991313e+02 5.2824402148e+02 0.0000000000e+00 0.0000e+00 1.0000e+00
       13  1    1    2    0    0 -3.7962341181e-01 +3.2431110629e+02 +7.4656125616e+01 3.3279329150e+02 0.0000000000e+00 0.0000e+00 -1.0000e+00
<mgrwt>
<rscale>  0 0.70688690E+03</rscale>
<asrwt>0</asrwt>
<pdfrwt beam="1">  1        2 0.10405103E+00 0.70688690E+03</pdfrwt>
<pdfrwt beam="2">  1       -2 0.28416252E-01 0.70688690E+03</pdfrwt>
<totfact> 0.56801424E+02</totfact>
</mgrwt>
<rwgt>
<wgt id='morphing_basis_vector_1'> +3.0716692e-04 </wgt>
<wgt id='morphing_basis_vector_2'> +2.6967320e-04 </wgt>
<wgt id='morphing_basis_vector_3'> +2.4539836e-04 </wgt>
<wgt id='morphing_basis_vector_4'> +7.9288370e-05 </wgt>
<wgt id='morphing_basis_vector_5'> +1.8116382e-04 </wgt>
</rwgt>
</event>
<event>
 4      1 +5.9529000e-06 6.38932300e+02 7.81860800e-03 9.13347200e-02
        2 -1    0    0  501    0 +0.0000000000e+00 +0.0000000000e+00 +1.2453921526e+03 1.2453921526e+03 0.0000000000e+00 0.0000e+00 1.0000e+00
       -2 -1    0    0    0  501 -0.0000000000e+00 -0.0000000000e+00 -8.1948981702e+01 8.1948981702e+01 0.0000000000e+00 0.0000e+00 -1.0000e+00
      -13  1    1    2    0    0 -1.0378860873e+00 +3.1050298726e+02 +4.2563108427e+02 5.2685387177e+02 0.0000000000e+00 0.0000e+00 -1.0000e+00
       13  1    1    2    0    0 +1.0378860873e+00 -3.1050298726e+02 +7.3781208664e+02 8.0048726254e+02 0.0000000000e+00 0.0000e+00 1.0000e+00
<mgrwt>
<rscale>  0 0.63893229E+03</rscale>
<asrwt>0</asrwt>
<pdfrwt beam="1">  1        2 0.19159878E+00 0.63893229E+03</pdfrwt>
<pdfrwt beam="2">  1       -2 0.12607537E-01 0.63893229E+03</pdfrwt>
<totfact> 0.94508960E+02</totfact>
</mgrwt>
<rwgt>
<wgt id='morphing_basis_vector_1'> +1.9553485e-04 </wgt>
<wgt id='morphing_basis_vector_2'> +1.1929757e-04 </wgt>
<wgt id='morphing_basis_vector_3'> +1.5812538e-04 </wgt>
<wgt id='morphing_basis_vector_4'> +7.0598187e-05 </wgt>
<wgt id='morphing_basis_vector_5'> +1.1156241e-04 </wgt>
</rwgt>
</event>
<event>
 4      1 +5.9529000e-06 6.29730700e+02 7.81860800e-03 9.14879800e-02
        2 -1    0    0  501    0 +0.0000000000e+00 +0.0000000000e+00 +2.7228160343e+02 2.7228160343e+02 0.0000000000e+00 0.0000e+00 1.0000e+00
       -2 -1    0    0    0  501 -0.0000000000e+00 -0.0000000000e+00 -3.6410902838e+02 3.6410902838e+02 0.0000000000e+00 0.0000e+00 -1.0000e+00
      -13  1    1    2    0    0 -2.2137717171e+02 +1.9629758671e+02 +6.2926737487e+01 3.0249027917e+02 0.0000000000e+00 0.0000e+00 1.0000e+00
       13  1    1    2    0    0 +2.2137717171e+02 -1.9629758671e+02 -1.5475416243e+02 3.3390035264e+02 0.0000000000e+00 0.0000e+00 -1.0000e+00
<mgrwt>
<rscale>  0 0.62973070E+03</rscale>
<asrwt>0</asrwt>
<pdfrwt beam="1">  1        2 0.41889478E-01 0.62973070E+03</pdfrwt>
<pdfrwt beam="2">  1       -2 0.56016773E-01 0.62973070E+03</pdfrwt>
<totfact> 0.45391403E+02</totfact>
</mgrwt>
<rwgt>
<wgt id='morphing_basis_vector_1'> +2.0394117e-04 </wgt>
<wgt id='morphing_basis_vector_2'> +1.6785297e-04 </wgt>
<wgt id='morphing_basis_vector_3'> +1.5181467e-04 </wgt>
<wgt id='morphing_basis_vector_4'> +5.0701884e-05 </wgt>
<wgt id='morphing_basis_vector_5'> +1.0370561e-04 </wgt>
</rwgt>
</event>
<event>
 4      1 +5.9529000e-06 7.11406600e+02 7.81860800e-03 9.02148600e-02
        2 -1    0    0  501    0 +0.0000000000e+00 +0.0000000000e+00 +3.9246375932e+02 3.9246375932e+02 0.0000000000e+00 0.0000e+00 -1.0000e+00
       -2 -1    0    0    0  501 -0.0000000000e+00 -0.0000000000e+00 -3.2238600401e+02 3.2238600401e+02 0.0000000000e+00 0.0000e+00 1.0000e+00
      -13  1    1    2    0    0 +2.6956940284e+02 +5.0709086130e+01 -1.9252077532e+02 3.3511688004e+02 0.0000000000e+00 0.0000e+00 1.0000e+00
       13  1    1    2    0    0 -2.6956940284e+02 -5.0709086130e+01 +2.6259853062e+02 3.7973288329e+02 0.0000000000e+00 0.0000e+00 -1.0000e+00
<mgrwt>
<rscale>  0 0.71140656E+03</rscale>
<asrwt>0</asrwt>
<pdfrwt beam="1">  1        2 0.60379040E-01 0.71140656E+03</pdfrwt>
<pdfrwt beam="2">  1       -2 0.49597846E-01 0.71140656E+03</pdfrwt>
<totfact> 0.38185305E+02</totfact>
</mgrwt>
<rwgt>
<wgt id='morphing_basis_vector_1'> +2.7793162e-04 </wgt>
<wgt id='morphing_basis_vector_2'> +1.6482676e-04 </wgt>
<wgt id='morphing_basis_vector_3'> +2.3821631e-04 </wgt>
<wgt id='morphing_basis_vector_4'> +1.2044221e-04 </wgt>
<wgt id='morphing_basis_vector_5'> +1.8779147e-04 </wgt>
</rwgt>
</event>
<event>
 4      1 +5.9529000e-06 6.75252200e+02 7.81860800e-03 9.07551600e-02
        2 -1    0    0  501    0 +0.0000000000e+00 +0.0000000000e+00 +4.8697709423e+02 4.8697709423e+02 0.0000000000e+00 0.0000e+00 -1.0000e+00
       -2 -1    0    0    0  501 -0.0000000000e+00 -0.0000000000e+00 -2.3407957997e+02 2.3407957997e+02 0.0000000000e+00 0.0000e+00 1.0000e+00
      -13  1    1    2    0    0 -2.5738572194e+02 -2.1332927092e+02 +7.5970558031e+01 3.4282402684e+02 0.0000000000e+00 0.0000e+00 1.0000e+00
       13  1    1    2    0    0 +2.5738572194e+02 +2.1332927092e+02 +1.7692695623e+02 3.7823264736e+02 0.0000000000e+00 0.0000e+00 -1.0000e+00
<mgrwt>
<rscale>  0 0.67525223E+03</rscale>
<asrwt>0</asrwt>
<pdfrwt beam="1">  1        2 0.74919553E-01 0.67525223E+03</pdfrwt>
<pdfrwt beam="2">  1       -2 0.36012243E-01 0.67525223E+03</pdfrwt>
<totfact> 0.54712007E+02</totfact>
</mgrwt>
<rwgt>
<wgt id='morphing_basis_vector_1'> +2.3693329e-04 </wgt>
<wgt id='morphing_basis_vector_2'> +1.4984522e-04 </wgt>
<wgt id='morphing_basis_vector_3'> +1.9606062e-04 </wgt>
<wgt id='morphing_basis_vector_4'> +9.0154371e-05 </wgt>
<wgt id='morphing_basis_vector_5'> +1.4620153e-04 </wgt>
</rwgt>
</event>
<event>
 4      1 +5.9529000e-06 7.23798700e+02 7.81860800e-03 9.00373000e-02
        2 -1    0    0  501    0 +0.0000000000e+00 +0.0000000000e+00 +1.6942724039e+02 1.6942724039e+02 0.0000000000e+00 0.0000e+00 1.0000e+00
       -2 -1    0    0    0  501 -0.0000000000e+00 -0.0000000000e+00 -7.7302299876e+02 7.7302299876e+02 0.0000000000e+00 0.0000e+00 -1.0000e+00
      -13  1    1    2    0    0 +1.7216005141e+02 -1.8946848825e+02 -6.3487250794e+02 6.8454400346e+02 0.0000000000e+00 0.0000e+00 -1.0000e+00
       13  1    1    2    0    0 -1.7216005141e+02 +1.8946848825e+02 +3.1276749574e+01 2.5790623568e+02 0.0000000000e+00 0.0000e+00 1.0000e+00
<mgrwt>
<rscale>  0 0.72379874E+03</rscale>
<asrwt>0</asrwt>
<pdfrwt beam="1">  1        2 0.26065729E-01 0.72379874E+03</pdfrwt>
<pdfrwt beam="2">  1       -2 0.11892662E+00 0.72379874E+03</pdfrwt>
<totfact> 0.14177567E+02</totfact>
</mgrwt>
<rwgt>
<wgt id='morphing_basis_vector_1'> +2.9475841e-04 </wgt>
<wgt id='morphing_basis_vector_2'> +1.7486315e-04 </wgt>
<wgt id='morphing_basis_vector_3'> +2.5457759e-04 </wgt>
<wgt id='morphing_basis_vector_4'> +1.3069046e-04 </wgt>
<wgt id='morphing_basis_vector_5'> +2.0376678e-04 </wgt>
</rwgt>
</event>
<event>
 4      1 +5.9529000e-06 6.36182200e+02 7.81860800e-03 9.13802400e-02
        2 -1    0    0  501    0 +0.0000000000e+00 +0.0000000000e+00 +5.2962678554e+02 5.2962678554e+02 0.0000000000e+00 0.0000e+00 -1.0000e+00
       -2 -1    0    0    0  501 -0.0000000000e+00 -0.0000000000e+00 -1.9104387856e+02 1.9104387856e+02 0.0000000000e+00 0.0000e+00 1.0000e+00
      -13  1    1    2    0    0 +1.4632757603e+02 +2.3286014445e+02 -1.1767386720e+01 2.7527091705e+02 0.0000000000e+00 0.0000e+00 1.0000e+00
       13  1    1    2    0    0 -1.4632757603e+02 -2.3286014445e+02 +3.5035029370e+02 4.4539974706e+02 0.0000000000e+00 0.0000e+00 -1.0000e+00
<mgrwt>
<rscale>  0 0.63618222E+03</rscale>
<asrwt>0</asrwt>
<pdfrwt beam="1">  1        2 0.81481043E-01 0.63618222E+03</pdfrwt>
<pdfrwt beam="2">  1       -2 0.29391366E-01 0.63618222E+03</pdfrwt>
<totfact> 0.71495843E+02</totfact>
</mgrwt>
<rwgt>
<wgt id='morphing_basis_vector_1'> +1.9087397e-04 </wgt>
<wgt id='morphing_basis_vector_2'> +1.1169309e-04 </wgt>
<wgt id='morphing_basis_vector_3'> +1.5525166e-04 </wgt>
<wgt id='morphing_basis_vector_4'> +7.0817237e-05 </wgt>
<wgt id='morphing_basis_vector_5'> +1.0921373e-04 </wgt>
</rwgt>
</event>
<event>
 4      1 +5.9529000e-06 7.09785900e+02 7.81860800e-03 9.02383600e-02
        2 -1    0    0  501    0 +0.0000000000e+00 +0.0000000000e+00 +4.5561730522e+02 4.5561730522e+02 0.0000000000e+00 0.0000e+00 -1.0000e+00
       -2 -1    0    0    0  501 -0.0000000000e+00 -0.0000000000e+00 -2.7643593827e+02 2.7643593827e+02 0.0000000000e+00 0.0000e+00 1.0000e+00
      -13  1    1    2    0    0 +1.8374028940e+02 +8.8424539657e+00 -2.2342741479e+02 2.8941059522e+02 0.0000000000e+00 0.0000e+00 1.0000e+00
       13  1    1    2    0    0 -1.8374028940e+02 -8.8424539657e+00 +4.0260878174e+02 4.4264264828e+02 0.0000000000e+00 0.0000e+00 -1.0000e+00
<mgrwt>
<rscale>  0 0.70978588E+03</rscale>
<asrwt>0</asrwt>
<pdfrwt beam="1">  1        2 0.70094970E-01 0.70978588E+03</pdfrwt>
<pdfrwt beam="2">  1       -2 0.42528606E-01 0.70978588E+03</pdfrwt>
<totfact> 0.43329125E+02</totfact>
</mgrwt>
<rwgt>
<wgt id='morphing_basis_vector_1'> +2.7530631e-04 </wgt>
<wgt id='morphing_basis_vector_2'> +1.6206384e-04 </wgt>
<wgt id='morphing_basis_vector_3'> +2.3595578e-04 </wgt>
<wgt id='morphing_basis_vector_4'> +1.1966505e-04 </wgt>
<wgt id='morphing_basis_vector_5'> +1.8578489e-04 </wgt>
</rwgt>
</event>
<event>
 4      1 +5.9529000e-06 7.16024200e+02 7.81860800e-03 9.01482600e-02
        2 -1    0    0  501    0 +0.0000000000e+00 +0.0000000000e+00 +2.5718080984e+03 2.5718080984e+03 0.0000000000e+00 0.0000e+00 1.0000e+00
       -2 -1    0    0    0  501 -0.0000000000e+00 -0.0000000000e+00 -4.9837568758e+01 4.9837568758e+01 0.0000000000e+00 0.0000e+00 -1.0000e+00
      -13  1    1    2    0    0 +3.4117216133e+02 -9.1261802986e+01 +1.0460673670e+03 1.1040761281e+03 0.0000000000e+00 0.0000e+00 -1.0000e+00
       13  1    1    2    0    0 -3.4117216133e+02 +9.1261802986e+01 +1.4759031626e+03 1.5175695390e+03 0.0000000000e+00 0.0000e+00 1.0000e+00
<mgrwt>
<rscale>  0 0.71602420E+03</rscale>
<asrwt>0</asrwt>
<pdfrwt beam="1">  1        2 0.39566268E+00 0.71602420E+03</pdfrwt>
<pdfrwt beam="2">  1       -2 0.76673203E-02 0.71602420E+03</pdfrwt>
<totfact> 0.37297032E+02</totfact>
</mgrwt>
<rwgt>
<wgt id='morphing_basis_vector_1'> +2.8899694e-04 </wgt>
<wgt id='morphing_basis_vector_2'> +1.8355788e-04 </wgt>
<wgt id='morphing_basis_vector_3'> +2.4613804e-04 </wgt>
<wgt id='morphing_basis_vector_4'> +1.1886641e-04 </wgt>
<wgt id='morphing_basis_vector_5'> +1.9347988e-04 </wgt>
</rwgt>
</event>
<event>
 4      1 +5.9529000e-06 7.41471600e+02 7.81860800e-03 8.97904700e-02
        2 -1    0    0  501    0 +0.0000000000e+00 +0.0000000000e+00 +1.3010764688e+03 1.3010764688e+03 0.0000000000e+00 0.0000e+00 -1.0000e+00
       -2 -1    0    0    0  501 -0.0000000000e+00 -0.0000000000e+00 -1.0563948575e+02 1.0563948575e+02 0.0000000000e+00 0.0000e+00 1.0000e+00
      -13  1    1    2    0    0 -1.3954997741e+02 +2.5299033358e+02 +1.0384508883e+03 1.0778954275e+03 0.0000000000e+00 0.0000e+00 1.0000e+00
       13  1    1    2    0    0 +1.3954997741e+02 -2.5299033358e+02 +1.5698609469e+02 3.2882052705e+02 0.0000000000e+00 0.0000e+00 -1.0000e+00
<mgrwt>
<rscale>  0 0.74147164E+03</rscale>
<asrwt>0</asrwt>
<pdfrwt beam="1">  1        2 0.20016560E+00 0.74147164E+03</pdfrwt>
<pdfrwt beam="2">  1       -2 0.16252229E-01 0.74147164E+03</pdfrwt>
<totfact> 0.58103821E+02</totfact>
</mgrwt>
<rwgt>
<wgt id='morphing_basis_vector_1'> +3.9794135e-04 </wgt>
<wgt id='morphing_basis_vector_2'> +4.2918182e-04 </wgt>
<wgt id='morphing_basis_vector_3'> +3.1515879e-04 </wgt>
<wgt id='morphing_basis_vector_4'> +5.7216716e-05 </wgt>
<wgt id='morphing_basis_vector_5'> +2.2516200e-04 </wgt>
</rwgt>
</event>
<event>
 4      1 +5.9529000e-06 6.61135600e+02 7.81860800e-03 9.09757800e-02
        2 -1    0    0  501    0 +0.0000000000e+00 +0.0000000000e+00 +9.1639384915e+01 9.1639384915e+01 0.0000000000e+00 0.0000e+00 -1.0000e+00
       -2 -1    0    0    0  501 -0.0000000000e+00 -0.0000000000e+00 -1.1924466717e+03 1.1924466717e+03 0.0000000000e+00 0.0000e+00 1.0000e+00
      -13  1    1    2    0    0 -1.2800976902e+02 -2.8366942881e+02 -7.6685905759e+02 8.2760356452e+02 0.0000000000e+00 0.0000e+00 1.0000e+00
       13  1    1    2    0    0 +1.2800976902e+02 +2.8366942881e+02 -3.3394822919e+02 4.5648249209e+02 0.0000000000e+00 0.0000e+00 -1.0000e+00
<mgrwt>
<rscale>  0 0.66113563E+03</rscale>
<asrwt>0</asrwt>
<pdfrwt beam="1">  1        2 0.14098366E-01 0.66113563E+03</pdfrwt>
<pdfrwt beam="2">  1       -2 0.18345334E+00 0.66113563E+03</pdfrwt>
<totfact> 0.87128859E+01</totfact>
</mgrwt>
<rwgt>
<wgt id='morphing_basis_vector_1'> +2.1816209e-04 </wgt>
<wgt id='morphing_basis_vector_2'> +1.3138140e-04 </wgt>
<wgt id='morphing_basis_vector_3'> +1.8007789e-04 </wgt>
<wgt id='morphing_basis_vector_4'> +8.3992448e-05 </wgt>
<wgt id='morphing_basis_vector_5'> +1.3198529e-04 </wgt>
</rwgt>
</event>
<event>
 4      1 +5.9529000e-06 6.55192400e+02 7.81860800e-03 9.10704000e-02
        2 -1    0    0  501    0 +0.0000000000e+00 +0.0000000000e+00 +7.3998637444e+02 7.3998637444e+02 0.0000000000e+00 0.0000e+00 -1.0000e+00
       -2 -1    0    0    0  501 -0.0000000000e+00 -0.0000000000e+00 -1.4502871071e+02 1.4502871071e+02 0.0000000000e+00 0.0000e+00 1.0000e+00
      -13  1    1    2    0    0 -9.2032579945e+01 +3.1304336372e+02 +2.5802505945e+02 4.1598446443e+02 0.0000000000e+00 0.0000e+00 1.0000e+00
       13  1    1    2    0    0 +9.2032579945e+01 -3.1304336372e+02 +3.3693260427e+02 4.6903062071e+02 0.0000000000e+00 0.0000e+00 -1.0000e+00
<mgrwt>
<rscale>  0 0.65519240E+03</rscale>
<asrwt>0</asrwt>
<pdfrwt beam="1">  1        2 0.11384406E+00 0.65519240E+03</pdfrwt>
<pdfrwt beam="2">  1       -2 0.22312110E-01 0.65519240E+03</pdfrwt>
<totfact> 0.77115395E+02</totfact>
</mgrwt>
<rwgt>
<wgt id='morphing_basis_vector_1'> +2.1492969e-04 </wgt>
<wgt id='morphing_basis_vector_2'> +1.3738840e-04 </wgt>
<wgt id='morphing_basis_vector_3'> +1.7463835e-04 </wgt>
<wgt id='morphing_basis_vector_4'> +7.7409956e-05 </wgt>
<wgt id='morphing_basis_vector_5'> +1.2623875e-04 </wgt>
</rwgt>
</event>
<event>
 4      1 +5.9529000e-06 7.31189100e+02 7.81860800e-03 8.99331800e-02
        2 -1    0    0  501    0 +0.0000000000e+00 +0.0000000000e+00 +1.4064260271e+03 1.4064260271e+03 0.0000000000e+00 0.0000e+00 -1.0000e+00
       -2 -1    0    0    0  501 -0.0000000000e+00 -0.0000000000e+00 -9.5034779105e+01 9.5034779105e+01 0.0000000000e+00 0.0000e+00 1.0000e+00
      -13  1    1    2    0    0 +3.1445424498e+02 -1.7417001335e+02 +7.9256579078e+02 8.7027420877e+02 0.0000000000e+00 0.0000e+00 1.0000e+00
       13  1    1    2    0    0 -3.1445424498e+02 +1.7417001335e+02 +5.1882545725e+02 6.3118659747e+02 0.0000000000e+00 0.0000e+00 -1.0000e+00
<mgrwt>
<rscale>  0 0.73118913E+03</rscale>
<asrwt>0</asrwt>
<pdfrwt beam="1">  1        2 0.21637322E+00 0.73118913E+03</pdfrwt>
<pdfrwt beam="2">  1       -2 0.14620736E-01 0.73118913E+03</pdfrwt>
<totfact> 0.60232598E+02</totfact>
</mgrwt>
<rwgt>
<wgt id='morphing_basis_vector_1'> +3.2509164e-04 </wgt>
<wgt id='morphing_basis_vector_2'> +2.4235672e-04 </wgt>
<wgt id='morphing_basis_vector_3'> +2.7337003e-04 </wgt>
<wgt id='morphing_basis_vector_4'> +1.1471288e-04 </wgt>
<wgt id='morphing_basis_vector_5'> +2.1302172e-04 </wgt>
</rwgt>
</event>
<event>
 4      1 +5.9529000e-06 7.07944000e+02 7.81860800e-03 9.02651500e-02
        2 -1    0    0  501    0 +0.0000000000e+00 +0.0000000000e+00 +4.9651856779e+02 4.9651856779e+02 0.0000000000e+00 0.0000e+00 -1.0000e+00
       -2 -1    0    0    0  501 -0.0000000000e+00 -0.0000000000e+00 -2.5234939453e+02 2.5234939453e+02 0.0000000000e+00 0.0000e+00 1.0000e+00
      -13  1    1    2    0    0 +1.6791379589e+02 -1.8431179664e+02 -1.4369720730e+02 2.8777555250e+02 0.0000000000e+00 0.0000e+00 1.0000e+00
       13  1    1    2    0    0 -1.6791379589e+02 +1.8431179664e+02 +3.8786638055e+02 4.6109240982e+02 0.0000000000e+00 0.0000e+00 -1.0000e+00
<mgrwt>
<rscale>  0 0.70794395E+03</rscale>
<asrwt>0</asrwt>
<pdfrwt beam="1">  1        2 0.76387472E-01 0.70794395E+03</pdfrwt>
<pdfrwt beam="2">  1       -2 0.38822984E-01 0.70794395E+03</pdfrwt>
<totfact> 0.46582675E+02</totfact>
</mgrwt>
<rwgt>
<wgt id='morphing_basis_vector_1'> +2.7309683e-04 </wgt>
<wgt id='morphing_basis_vector_2'> +1.6126926e-04 </wgt>
<wgt id='morphing_basis_vector_3'> +2.3368998e-04 </wgt>
<wgt id='morphing_basis_vector_4'> +1.1797806e-04 </wgt>
<wgt id='morphing_basis_vector_5'> +1.8350025e-04 </wgt>
</rwgt>
</event>
<event>
 4      1 +5.9529000e-06 7.38029100e+02 7.81860800e-03 8.98379700e-02
        2 -1    0    0  501    0 +0.0000000000e+00 +0.0000000000e+00 +9.7627953463e+01 9.7627953463e+01 0.0000000000e+00 0.0000e+00 -1.0000e+00
       -2 -1    0    0    0  501 -0.0000000000e+00 -0.0000000000e+00 -1.3948025971e+03 1.3948025971e+03 0.0000000000e+00 0.0000e+00 1.0000e+00
      -13  1    1    2    0    0 +2.1995121598e+02 +1.4208514484e+02 -1.1743745932e+03 1.2032133689e+03 0.0000000000e+00 0.0000e+00 1.0000e+00
       13  1    1    2    0    0 -2.1995121598e+02 -1.4208514484e+02 -1.2280005037e+02 2.8921718166e+02 0.0000000000e+00 0.0000e+00 -1.0000e+00
<mgrwt>
<rscale>  0 0.73802906E+03</rscale>
<asrwt>0</asrwt>
<pdfrwt beam="1">  1        2 0.15019685E-01 0.73802906E+03</pdfrwt>
<pdfrwt beam="2">  1       -2 0.21458501E+00 0.73802906E+03</pdfrwt>
<totfact> 0.47558091E+01</totfact>
</mgrwt>
<rwgt>
<wgt id='morphing_basis_vector_1'> +3.1533424e-04 </wgt>
<wgt id='morphing_basis_vector_2'> +1.8781612e-04 </wgt>
<wgt id='morphing_basis_vector_3'> +2.7452393e-04 </wgt>
<wgt id='morphing_basis_vector_4'> +1.4292264e-04 </wgt>
<wgt id='morphing_basis_vector_5'> +2.2327085e-04 </wgt>
</rwgt>
</event>
<event>
 4      1 +5.9529000e-06 6.38426600e+02 7.81860800e-03 9.13430700e-02
        2 -1    0    0  501    0 +0.0000000000e+00 +0.0000000000e+00 +1.6591135250e+02 1.6591135250e+02 0.0000000000e+00 0.0000e+00 1.0000e+00
       -2 -1    0    0    0  501 -0.0000000000e+00 -0.0000000000e+00 -6.1416613349e+02 6.1416613349e+02 0.0000000000e+00 0.0000e+00 -1.0000e+00
      -13  1    1    2    0    0 -8.5011325652e+01 +2.1275150192e+02 -4.9572193118e+02 5.4610471534e+02 0.0000000000e+00 0.0000e+00 -1.0000e+00
       13  1    1    2    0    0 +8.5011325652e+01 -2.1275150192e+02 +4.7467150186e+01 2.3397277065e+02 0.0000000000e+00 0.0000e+00 1.0000e+00
<mgrwt>
<rscale>  0 0.63842661E+03</rscale>
<asrwt>0</asrwt>
<pdfrwt beam="1">  1        2 0.25524823E-01 0.63842661E+03</pdfrwt>
<pdfrwt beam="2">  1       -2 0.94487097E-01 0.63842661E+03</pdfrwt>
<totfact> 0.25718078E+02</totfact>
</mgrwt>
<rwgt>
<wgt id='morphing_basis_vector_1'> +1.9256405e-04 </wgt>
<wgt id='morphing_basis_vector_2'> +1.1136437e-04 </wgt>
<wgt id='morphing_basis_vector_3'> +1.5726042e-04 </wgt>
<wgt id='morphing_basis_vector_4'> +7.2513944e-05 </wgt>
<wgt id='morphing_basis_vector_5'> +1.1114507e-04 </wgt>
</rwgt>
</event>
<event>
 4      1 +5.9529000e-06 7.00545400e+02 7.81860800e-03 9.03736000e-02
        2 -1    0    0  501    0 +0.0000000000e+00 +0.0000000000e+00 +1.3285831959e+03 1.3285831959e+03 0.0000000000e+00 0.0000e+00 -1.0000e+00
       -2 -1    0    0    0  501 -0.0000000000e+00 -0.0000000000e+00 -9.2347226646e+01 9.2347226646e+01 0.0000000000e+00 0.0000e+00 1.0000e+00
      -13  1    1    2    0    0 +3.0106267252e+02 +4.3693662365e+01 +2.6596570744e+02 4.0408616216e+02 0.0000000000e+00 0.0000e+00 1.0000e+00
       13  1    1    2    0    0 -3.0106267252e+02 -4.3693662365e+01 +9.7027026178e+02 1.0168442604e+03 0.0000000000e+00 0.0000e+00 -1.0000e+00
<mgrwt>
<rscale>  0 0.70054543E+03</rscale>
<asrwt>0</asrwt>
<pdfrwt beam="1">  1        2 0.20439740E+00 0.70054543E+03</pdfrwt>
<pdfrwt beam="2">  1       -2 0.14207267E-01 0.70054543E+03</pdfrwt>
<totfact> 0.69840964E+02</totfact>
</mgrwt>
<rwgt>
<wgt id='morphing_basis_vector_1'> +2.6427809e-04 </wgt>
<wgt id='morphing_basis_vector_2'> +1.5783392e-04 </wgt>
<wgt id='morphing_basis_vector_3'> +2.2470542e-04 </wgt>
<wgt id='morphing_basis_vector_4'> +1.1147096e-04 </wgt>
<wgt id='morphing_basis_vector_5'> +1.7452873e-04 </wgt>
</rwgt>
</event>
<event>
 4      1 +5.9529000e-06 6.90655300e+02 7.81860800e-03 9.05207700e-02
        2 -1    0    0  501    0 +0.0000000000e+00 +0.0000000000e+00 +3.0418834530e+02 3.0418834530e+02 0.0000000000e+00 0.0000e+00 -1.0000e+00
       -2 -1    0    0    0  501 -0.0000000000e+00 -0.0000000000e+00 -3.9203077528e+02 3.9203077528e+02 0.0000000000e+00 0.0000e+00 1.0000e+00
      -13  1    1    2    0    0 +1.0279764066e+02 -1.3838541664e+02 -3.4555286899e+02 3.8616662690e+02 0.0000000000e+00 0.0000e+00 1.0000e+00
       13  1    1    2    0    0 -1.0279764066e+02 +1.3838541664e+02 +2.5771043901e+02 3.1005249368e+02 0.0000000000e+00 0.0000e+00 -1.0000e+00
<mgrwt>
<rscale>  0 0.69065532E+03</rscale>
<asrwt>0</asrwt>
<pdfrwt beam="1">  1        2 0.46798207E-01 0.69065532E+03</pdfrwt>
<pdfrwt beam="2">  1       -2 0.60312427E-01 0.69065532E+03</pdfrwt>
<totfact> 0.34431238E+02</totfact>
</mgrwt>
<rwgt>
<wgt id='morphing_basis_vector_1'> +2.5071343e-04 </wgt>
<wgt id='morphing_basis_vector_2'> +1.4673763e-04 </wgt>
<wgt id='morphing_basis_vector_3'> +2.1237892e-04 </wgt>
<wgt id='morphing_basis_vector_4'> +1.0539060e-04 </wgt>
<wgt id='morphing_basis_vector_5'> +1.6308501e-04 </wgt>
</rwgt>
</event>
<event>
 4      1 +5.9529000e-06 6.35261500e+02 7.81860800e-03 9.13955300e-02
        2 -1    0    0  501    0 +0.0000000000e+00 +0.0000000000e+00 +1.2088563948e+03 1.2088563948e+03 0.0000000000e+00 0.0000e+00 1.0000e+00
       -2 -1    0    0    0  501 -0.0000000000e+00 -0.0000000000e+00 -8.3458456675e+01 8.3458456675e+01 0.0000000000e+00 0.0000e+00 -1.0000e+00
      -13  1    1    2    0    0 -2.4038076699e+02 -1.1151104926e+02 +9.1897324184e+02 9.5641489243e+02 0.0000000000e+00 0.0000e+00 1.0000e+00
       13  1    1    2    0    0 +2.4038076699e+02 +1.1151104926e+02 +2.0642469626e+02 3.3589995902e+02 0.0000000000e+00 0.0000e+00 -1.0000e+00
<mgrwt>
<rscale>  0 0.63526149E+03</rscale>
<asrwt>0</asrwt>
<pdfrwt beam="1">  1        2 0.18597790E+00 0.63526149E+03</pdfrwt>
<pdfrwt beam="2">  1       -2 0.12839763E-01 0.63526149E+03</pdfrwt>
<totfact> 0.96331771E+02</totfact>
</mgrwt>
<rwgt>
<wgt id='morphing_basis_vector_1'> +2.2724626e-04 </wgt>
<wgt id='morphing_basis_vector_2'> +2.2653007e-04 </wgt>
<wgt id='morphing_basis_vector_3'> +1.5984860e-04 </wgt>
<wgt id='morphing_basis_vector_4'> +3.7560421e-05 </wgt>
<wgt id='morphing_basis_vector_5'> +1.0816983e-04 </wgt>
</rwgt>
</event>
<event>
 4      1 +5.9529000e-06 6.83458300e+02 7.81860800e-03 9.06294900e-02
        2 -1    0    0  501    0 +0.0000000000e+00 +0.0000000000e+00 +7.1776334592e+02 7.1776334592e+02 0.0000000000e+00 0.0000e+00 1.0000e+00
       -2 -1    0    0    0  501 -0.0000000000e+00 -0.0000000000e+00 -1.6269819693e+02 1.6269819693e+02 0.0000000000e+00 0.0000e+00 -1.0000e+00
      -13  1    1    2    0    0 +2.2383614401e+02 +2.3121529192e+02 +1.2943668418e+02 3.4686738935e+02 0.0000000000e+00 0.0000e+00 -1.0000e+00
       13  1    1    2    0    0 -2.2383614401e+02 -2.3121529192e+02 +4.2562846481e+02 5.3359415349e+02 0.0000000000e+00 0.0000e+00 1.0000e+00
<mgrwt>
<rscale>  0 0.68345827E+03</rscale>
<asrwt>0</asrwt>
<pdfrwt beam="1">  1        2 0.11042513E+00 0.68345827E+03</pdfrwt>
<pdfrwt beam="2">  1       -2 0.25030492E-01 0.68345827E+03</pdfrwt>
<totfact> 0.65835521E+02</totfact>
</mgrwt>
<rwgt>
<wgt id='morphing_basis_vector_1'> +2.4410739e-04 </wgt>
<wgt id='morphing_basis_vector_2'> +1.4801008e-04 </wgt>
<wgt id='morphing_basis_vector_3'> +2.0465341e-04 </wgt>
<wgt id='morphing_basis_vector_4'> +9.8151459e-05 </wgt>
<wgt id='morphing_basis_vector_5'> +1.5503061e-04 </wgt>
</rwgt>
</event>
<event>
 4      1 +5.9529000e-06 7.43126600e+02 7.81860800e-03 8.97677300e-02
        2 -1    0    0  501    0 +0.0000000000e+00 +0.0000000000e+00 +2.0663706361e+02 2.0663706361e+02 0.0000000000e+00 0.0000e+00 -1.0000e+00
       -2 -1    0    0    0  501 -0.0000000000e+00 -0.0000000000e+00 -6.6812450098e+02 6.6812450098e+02 0.0000000000e+00 0.0000e+00 1.0000e+00
      -13  1    1    2    0    0 +1.1946496315e+02 +2.3949570398e+02 -5.3413734188e+02 5.9743850699e+02 0.0000000000e+00 0.0000e+00 1.0000e+00
       13  1    1    2    0    0 -1.1946496315e+02 -2.3949570398e+02 +7.2649904514e+01 2.7732305759e+02 0.0000000000e+00 0.0000e+00 -1.0000e+00
<mgrwt>
<rscale>  0 0.74312660E+03</rscale>
<asrwt>0</asrwt>
<pdfrwt beam="1">  1        2 0.31790318E-01 0.74312660E+03</pdfrwt>
<pdfrwt beam="2">  1       -2 0.10278838E+00 0.74312660E+03</pdfrwt>
<totfact> 0.16215025E+02</totfact>
</mgrwt>
<rwgt>
<wgt id='morphing_basis_vector_1'> +3.2300501e-04 </wgt>
<wgt id='morphing_basis_vector_2'> +1.9273052e-04 </wgt>
<wgt id='morphing_basis_vector_3'> +2.8196839e-04 </wgt>
<wgt id='morphing_basis_vector_4'> +1.4746430e-04 </wgt>
<wgt id='morphing_basis_vector_5'> +2.3056911e-04 </wgt>
</rwgt>
</event>
<event>
 4      1 +5.9529000e-06 6.92172500e+02 7.81860800e-03 9.04980300e-02
        2 -1    0    0  501    0 +0.0000000000e+00 +0.0000000000e+00 +7.7018971588e+02 7.7018971588e+02 0.0000000000e+00 0.0000e+00 1.0000e+00
       -2 -1    0    0    0  501 -0.0000000000e+00 -0.0000000000e+00 -1.5551452597e+02 1.5551452597e+02 0.0000000000e+00 0.0000e+00 -1.0000e+00
      -13  1    1    2    0    0 +7.2204537520e+01 -2.7081887190e+02 +3.5813487707e+01 2.8255789233e+02 0.0000000000e+00 0.0000e+00 -1.0000e+00
       13  1    1    2    0    0 -7.2204537520e+01 +2.7081887190e+02 +5.7886170221e+02 6.4314634952e+02 0.0000000000e+00 0.0000e+00 1.0000e+00
<mgrwt>
<rscale>  0 0.69217249E+03</rscale>
<asrwt>0</asrwt>
<pdfrwt beam="1">  1        2 0.11849072E+00 0.69217249E+03</pdfrwt>
<pdfrwt beam="2">  1       -2 0.23925312E-01 0.69217249E+03</pdfrwt>
<totfact> 0.65121290E+02</totfact>
</mgrwt>
<rwgt>
<wgt id='morphing_basis_vector_1'> +2.5319998e-04 </wgt>
<wgt id='morphing_basis_vector_2'> +1.4976671e-04 </wgt>
<wgt id='morphing_basis_vector_3'> +2.1437550e-04 </wgt>
<wgt id='morphing_basis_vector_4'> +1.0585345e-04 </wgt>
<wgt id='morphing_basis_vector_5'> +1.6479424e-04 </wgt>
</rwgt>
</event>
<event>
 4      1 +5.9529000e-06 7.03259600e+02 7.81860800e-03 9.03336500e-02
        2 -1    0    0  501    0 +0.0000000000e+00 +0.0000000000e+00 +1.0822148628e+03 1.0822148628e+03 0.0000000000e+00 0.0000e+00 -1.0000e+00
       -2 -1    0    0    0  501 -0.0000000000e+00 -0.0000000000e+00 -1.1425042362e+02 1.1425042362e+02 0.0000000000e+00 0.0000e+00 1.0000e+00
      -13  1    1    2    0    0 +1.6313843454e+02 -2.1971152673e+02 +1.0831838472e+02 2.9431305828e+02 0.0000000000e+00 0.0000e+00 1.0000e+00
       13  1    1    2    0    0 -1.6313843454e+02 +2.1971152673e+02 +8.5964605444e+02 9.0215222813e+02 0.0000000000e+00 0.0000e+00 -1.0000e+00
<mgrwt>
<rscale>  0 0.70325957E+03</rscale>
<asrwt>0</asrwt>
<pdfrwt beam="1">  1        2 0.16649459E+00 0.70325957E+03</pdfrwt>
<pdfrwt beam="2">  1       -2 0.17576989E-01 0.70325957E+03</pdfrwt>
<totfact> 0.68578576E+02</totfact>
</mgrwt>
<rwgt>
<wgt id='morphing_basis_vector_1'> +2.6718415e-04 </wgt>
<wgt id='morphing_basis_vector_2'> +1.5815704e-04 </wgt>
<wgt id='morphing_basis_vector_3'> +2.2786549e-04 </wgt>
<wgt id='morphing_basis_vector_4'> +1.1414622e-04 </wgt>
<wgt id='morphing_basis_vector_5'> +1.7779103e-04 </wgt>
</rwgt>
</event>
<event>
 4      1 +5.9529000e-06 6.33198800e+02 7.81860800e-03 9.14298900e-02
        2 -1    0    0  501    0 +0.0000000000e+00 +0.0000000000e+00 +1.2359862912e+03 1.2359862912e+03 0.0000000000e+00 0.0000e+00 -1.0000e+00
       -2 -1    0    0    0  501 -0.0000000000e+00 -0.0000000000e+00 -8.1097327278e+01 8.1097327278e+01 0.0000000000e+00 0.0000e+00 1.0000e+00
      -13  1    1    2    0    0 +2.4377439525e+02 -4.7894431227e+01 +1.6922832200e+02 3.0059616978e+02 0.0000000000e+00 0.0000e+00 1.0000e+00
       13  1    1    2    0    0 -2.4377439525e+02 +4.7894431227e+01 +9.8566064188e+02 1.0164874487e+03 0.0000000000e+00 0.0000e+00 -1.0000e+00
<mgrwt>
<rscale>  0 0.63319881E+03</rscale>
<asrwt>0</asrwt>
<pdfrwt beam="1">  1        2 0.19015172E+00 0.63319881E+03</pdfrwt>
<pdfrwt beam="2">  1       -2 0.12476513E-01 0.63319881E+03</pdfrwt>
<totfact> 0.97308894E+02</totfact>
</mgrwt>
<rwgt>
<wgt id='morphing_basis_vector_1'> +1.8753772e-04 </wgt>
<wgt id='morphing_basis_vector_2'> +1.0867892e-04 </wgt>
<wgt id='morphing_basis_vector_3'> +1.5244606e-04 </wgt>
<wgt id='morphing_basis_vector_4'> +6.9575116e-05 </wgt>
<wgt id='morphing_basis_vector_5'> +1.0669121e-04 </wgt>
</rwgt>
</event>
<event>
 4      1 +5.9529000e-06 6.79936900e+02 7.81860800e-03 9.06831900e-02
        2 -1    0    0  501    0 +0.0000000000e+00 +0.0000000000e+00 +8.7471753311e+01 8.7471753311e+01 0.0000000000e+00 0.0000e+00 -1.0000e+00
       -2 -1    0    0    0  501 -0.0000000000e+00 -0.0000000000e+00 -1.3213242891e+03 1.3213242891e+03 0.0000000000e+00 0.0000e+00 1.0000e+00
      -13  1    1    2    0    0 -2.9656394491e+01 +2.1213785402e+02 -1.1639236408e+03 1.1834695655e+03 0.0000000000e+00 0.0000e+00 1.0000e+00
       13  1    1    2    0    0 +2.9656394491e+01 -2.1213785402e+02 -6.9928894987e+01 2.2532647691e+02 0.0000000000e+00 0.0000e+00 -1.0000e+00
<mgrwt>
<rscale>  0 0.67993692E+03</rscale>
<asrwt>0</asrwt>
<pdfrwt beam="1">  1        2 0.13457194E-01 0.67993692E+03</pdfrwt>
<pdfrwt beam="2">  1       -2 0.20328064E+00 0.67993692E+03</pdfrwt>
<totfact> 0.65950106E+01</totfact>
</mgrwt>
<rwgt>
<wgt id='morphing_basis_vector_1'> +2.3781911e-04 </wgt>
<wgt id='morphing_basis_vector_2'> +1.3898385e-04 </wgt>
<wgt id='morphing_basis_vector_3'> +2.0002215e-04 </wgt>
<wgt id='morphing_basis_vector_4'> +9.7853486e-05 </wgt>
<wgt id='morphing_basis_vector_5'> +1.5126324e-04 </wgt>
</rwgt>
</event>
<event>
 4      1 +5.9529000e-06 6.89639600e+02 7.81860800e-03 9.05360300e-02
        2 -1    0    0  501    0 +0.0000000000e+00 +0.0000000000e+00 +6.9289014040e+02 6.9289014040e+02 0.0000000000e+00 0.0000e+00 -1.0000e+00
       -2 -1    0    0    0  501 -0.0000000000e+00 -0.0000000000e+00 -1.7160105758e+02 1.7160105758e+02 0.0000000000e+00 0.0000e+00 1.0000e+00
      -13  1    1    2    0    0 -2.1181440142e+02 -1.8132511604e+02 +6.3378128954e+00 2.7889837976e+02 0.0000000000e+00 0.0000e+00 1.0000e+00
       13  1    1    2    0    0 +2.1181440142e+02 +1.8132511604e+02 +5.1495126992e+02 5.8559281822e+02 0.0000000000e+00 0.0000e+00 -1.0000e+00
<mgrwt>
<rscale>  0 0.68963956E+03</rscale>
<asrwt>0</asrwt>
<pdfrwt beam="1">  1        2 0.10659848E+00 0.68963956E+03</pdfrwt>
<pdfrwt beam="2">  1       -2 0.26400163E-01 0.68963956E+03</pdfrwt>
<totfact> 0.62710823E+02</totfact>
</mgrwt>
<rwgt>
<wgt id='morphing_basis_vector_1'> +2.5004725e-04 </wgt>
<wgt id='morphing_basis_vector_2'> +1.4777447e-04 </wgt>
<wgt id='morphing_basis_vector_3'> +2.1136794e-04 </wgt>
<wgt id='morphing_basis_vector_4'> +1.0406469e-04 </wgt>
<wgt id='morphing_basis_vector_5'> +1.6192353e-04 </wgt>
</rwgt>
</event>
<event>
 4      1 +5.9529000e-06 6.71797100e+02 7.81860800e-03 9.08086400e-02
        2 -1    0    0  501    0 +0.0000000000e+00 +0.0000000000e+00 +2.5658284926e+02 2.5658284926e+02 0.0000000000e+00 0.0000e+00 1.0000e+00
       -2 -1    0    0    0  501 -0.0000000000e+00 -0.0000000000e+00 -4.3973262698e+02 4.3973262698e+02 0.0000000000e+00 0.0000e+00 -1.0000e+00
      -13  1    1    2    0    0 -1.5802873452e+01 -3.3418626128e+02 -6.0520399739e+01 3.3998956870e+02 0.0000000000e+00 0.0000e+00 -1.0000e+00
       13  1    1    2    0    0 +1.5802873452e+01 +3.3418626128e+02 -1.2262937799e+02 3.5632590754e+02 0.0000000000e+00 0.0000e+00 1.0000e+00
<mgrwt>
<rscale>  0 0.67179714E+03</rscale>
<asrwt>0</asrwt>
<pdfrwt beam="1">  1        2 0.39474285E-01 0.67179714E+03</pdfrwt>
<pdfrwt beam="2">  1       -2 0.67651173E-01 0.67179714E+03</pdfrwt>
<totfact> 0.32889559E+02</totfact>
</mgrwt>
<rwgt>
<wgt id='morphing_basis_vector_1'> +2.3900536e-04 </wgt>
<wgt id='morphing_basis_vector_2'> +1.6611861e-04 </wgt>
<wgt id='morphing_basis_vector_3'> +1.9382709e-04 </wgt>
<wgt id='morphing_basis_vector_4'> +8.1988578e-05 </wgt>
<wgt id='morphing_basis_vector_5'> +1.4250195e-04 </wgt>
</rwgt>
</event>
<event>
 4      1 +5.9529000e-06 6.26199600e+02 7.81860800e-03 9.15475200e-02
        2 -1    0    0  501    0 +0.0000000000e+00 +0.0000000000e+00 +1.0287803832e+03 1.0287803832e+03 0.0000000000e+00 0.0000e+00 -1.0000e+00
       -2 -1    0    0    0  501 -0.0000000000e+00 -0.0000000000e+00 -9.5289044316e+01 9.5289044316e+01 0.0000000000e+00 0.0000e+00 1.0000e+00
      -13  1    1    2    0    0 +9.1292805233e+01 +1.8572256478e+02 +4.4984509524e+01 2.1178020080e+02 0.0000000000e+00 0.0000e+00 1.0000e+00
       13  1    1    2    0    0 -9.1292805233e+01 -1.8572256478e+02 +8.8850682932e+02 9.1228922667e+02 0.0000000000e+00 0.0000e+00 -1.0000e+00
<mgrwt>
<rscale>  0 0.62619965E+03</rscale>
<asrwt>0</asrwt>
<pdfrwt beam="1">  1        2 0.15827390E+00 0.62619965E+03</pdfrwt>
<pdfrwt beam="2">  1       -2 0.14659854E-01 0.62619965E+03</pdfrwt>
<totfact> 0.99462685E+02</totfact>
</mgrwt>
<rwgt>
<wgt id='morphing_basis_vector_1'> +1.8052651e-04 </wgt>
<wgt id='morphing_basis_vector_2'> +1.0378209e-04 </wgt>
<wgt id='morphing_basis_vector_3'> +1.4612211e-04 </wgt>
<wgt id='morphing_basis_vector_4'> +6.6162171e-05 </wgt>
<wgt id='morphing_basis_vector_5'> +1.0092859e-04 </wgt>
</rwgt>
</event>
<event>
 4      1 +5.9529000e-06 6.67410600e+02 7.81860800e-03 9.08770100e-02
        2 -1    0    0  501    0 +0.0000000000e+00 +0.0000000000e+00 +2.1190147534e+02 2.1190147534e+02 0.0000000000e+00 0.0000e+00 1.0000e+00
       -2 -1    0    0    0  501 -0.0000000000e+00 -0.0000000000e+00 -5.2552352656e+02 5.2552352656e+02 0.0000000000e+00 0.0000e+00 -1.0000e+00
      -13  1    1    2    0    0 -2.9645299185e+02 -6.8523168286e+01 -5.3971213142e+00 3.0431715346e+02 0.0000000000e+00 0.0000e+00 1.0000e+00
       13  1    1    2    0    0 +2.9645299185e+02 +6.8523168286e+01 -3.0822492990e+02 4.3310784844e+02 0.0000000000e+00 0.0000e+00 -1.0000e+00
<mgrwt>
<rscale>  0 0.66741055E+03</rscale>
<asrwt>0</asrwt>
<pdfrwt beam="1">  1        2 0.32600227E-01 0.66741055E+03</pdfrwt>
<pdfrwt beam="2">  1       -2 0.80849773E-01 0.66741055E+03</pdfrwt>
<totfact> 0.27723895E+02</totfact>
</mgrwt>
<rwgt>
<wgt id='morphing_basis_vector_1'> +2.5361745e-04 </wgt>
<wgt id='morphing_basis_vector_2'> +2.2360892e-04 </wgt>
<wgt id='morphing_basis_vector_3'> +1.9387743e-04 </wgt>
<wgt id='morphing_basis_vector_4'> +6.0311274e-05 </wgt>
<wgt id='morphing_basis_vector_5'> +1.3770769e-04 </wgt>
</rwgt>
</event>
<event>
 4      1 +5.9529000e-06 6.84204400e+02 7.81860800e-03 9.06181500e-02
        2 -1    0    0  501    0 +0.0000000000e+00 +0.0000000000e+00 +9.8297330712e+02 9.8297330712e+02 0.0000000000e+00 0.0000e+00 1.0000e+00
       -2 -1    0    0    0  501 -0.0000000000e+00 -0.0000000000e+00 -1.1906113038e+02 1.1906113038e+02 0.0000000000e+00 0.0000e+00 -1.0000e+00
      -13  1    1    2    0    0 +1.7441535599e+02 +2.9422210338e+02 +4.2096674508e+02 5.4240239950e+02 0.0000000000e+00 0.0000e+00 -1.0000e+00
       13  1    1    2    0    0 -1.7441535599e+02 -2.9422210338e+02 +4.4294543166e+02 5.5963203800e+02 0.0000000000e+00 0.0000e+00 1.0000e+00
<mgrwt>
<rscale>  0 0.68420439E+03</rscale>
<asrwt>0</asrwt>
<pdfrwt beam="1">  1        2 0.15122666E+00 0.68420439E+03</pdfrwt>
<pdfrwt beam="2">  1       -2 0.18317098E-01 0.68420439E+03</pdfrwt>
<totfact> 0.73699204E+02</totfact>
</mgrwt>
<rwgt>
<wgt id='morphing_basis_vector_1'> +2.5060123e-04 </wgt>
<wgt id='morphing_basis_vector_2'> +1.6583029e-04 </wgt>
<wgt id='morphing_basis_vector_3'> +2.0720765e-04 </wgt>
<wgt id='morphing_basis_vector_4'> +9.2998764e-05 </wgt>
<wgt id='morphing_basis_vector_5'> +1.5572081e-04 </wgt>
</rwgt>
</event>
<event>
 4      1 +5.9529000e-06 7.44128500e+02 7.81860800e-03 8.97539900e-02
        2 -1    0    0  501    0 +0.0000000000e+00 +0.0000000000e+00 +1.4741167936e+03 1.4741167936e+03 0.0000000000e+00 0.0000e+00 -1.0000e+00
       -2 -1    0    0    0  501 -0.0000000000e+00 -0.0000000000e+00 -9.3908291981e+01 9.3908291981e+01 0.0000000000e+00 0.0000e+00 1.0000e+00
      -13  1    1    2    0    0 +6.7559413206e+01 -3.4669940317e+02 +4.4376006167e+02 5.6717523113e+02 0.0000000000e+00 0.0000e+00 1.0000e+00
       13  1    1    2    0    0 -6.7559413206e+01 +3.4669940317e+02 +9.3644843993e+02 1.0008498544e+03 0.0000000000e+00 0.0000e+00 -1.0000e+00
<mgrwt>
<rscale>  0 0.74412846E+03</rscale>
<asrwt>0</asrwt>
<pdfrwt beam="1">  1        2 0.22678718E+00 0.74412846E+03</pdfrwt>
<pdfrwt beam="2">  1       -2 0.14447431E-01 0.74412846E+03</pdfrwt>
<totfact> 0.56275409E+02</totfact>
</mgrwt>
<rwgt>
<wgt id='morphing_basis_vector_1'> +3.2743056e-04 </wgt>
<wgt id='morphing_basis_vector_2'> +2.0262361e-04 </wgt>
<wgt id='morphing_basis_vector_3'> +2.8480350e-04 </wgt>
<wgt id='morphing_basis_vector_4'> +1.4502769e-04 </wgt>
<wgt id='morphing_basis_vector_5'> +2.3190808e-04 </wgt>
</rwgt>
</event>
<event>
 4      1 +5.9529000e-06 7.33436900e+02 7.81860800e-03 8.99017700e-02
        2 -1    0    0  501    0 +0.0000000000e+00 +0.0000000000e+00 +2.0409981396e+03 2.0409981396e+03 0.0000000000e+00 0.0000e+00 -1.0000e+00
       -2 -1    0    0    0  501 -0.0000000000e+00 -0.0000000000e+00 -6.5890510551e+01 6.5890510551e+01 0.0000000000e+00 0.0000e+00 1.0000e+00
      -13  1    1    2    0    0 +2.9559210188e+02 +8.7658199173e+00 +3.6457913440e+02 4.6943527299e+02 0.0000000000e+00 0.0000e+00 1.0000e+00
       13  1    1    2    0    0 -2.9559210188e+02 -8.7658199173e+00 +1.6105284946e+03 1.6374533771e+03 0.0000000000e+00 0.0000e+00 -1.0000e+00
<mgrwt>
<rscale>  0 0.73343687E+03</rscale>
<asrwt>0</asrwt>
<pdfrwt beam="1">  1        2 0.31399967E+00 0.73343687E+03</pdfrwt>
<pdfrwt beam="2">  1       -2 0.10137003E-01 0.73343687E+03</pdfrwt>
<totfact> 0.48321779E+02</totfact>
</mgrwt>
<rwgt>
<wgt id='morphing_basis_vector_1'> +3.0899921e-04 </wgt>
<wgt id='morphing_basis_vector_2'> +1.8486287e-04 </wgt>
<wgt id='morphing_basis_vector_3'> +2.6814693e-04 </wgt>
<wgt id='morphing_basis_vector_4'> +1.3840878e-04 </wgt>
<wgt id='morphing_basis_vector_5'> +2.1682194e-04 </wgt>
</rwgt>
</event>
<event>
 4      1 +5.9529000e-06 7.15864700e+02 7.81860800e-03 9.01505600e-02
        2 -1    0    0  501    0 +0.0000000000e+00 +0.0000000000e+00 +3.7635736667e+02 3.7635736667e+02 0.0000000000e+00 0.0000e+00 1.0000e+00
       -2 -1    0    0    0  501 -0.0000000000e+00 -0.0000000000e+00 -3.4040931132e+02 3.4040931132e+02 0.0000000000e+00 0.0000e+00 -1.0000e+00
      -13  1    1    2    0    0 +1.2085021434e+02 +2.5071352491e+02 -2.0737289986e+02 3.4708149688e+02 0.0000000000e+00 0.0000e+00 1.0000e+00
       13  1    1    2    0    0 -1.2085021434e+02 -2.5071352491e+02 +2.4332095521e+02 3.6968518110e+02 0.0000000000e+00 0.0000e+00 -1.0000e+00
<mgrwt>
<rscale>  0 0.71586466E+03</rscale>
<asrwt>0</asrwt>
<pdfrwt beam="1">  1        2 0.57901134E-01 0.71586466E+03</pdfrwt>
<pdfrwt beam="2">  1       -2 0.52370663E-01 0.71586466E+03</pdfrwt>
<totfact> 0.35974592E+02</totfact>
</mgrwt>
<rwgt>
<wgt id='morphing_basis_vector_1'> +2.8400163e-04 </wgt>
<wgt id='morphing_basis_vector_2'> +1.6871082e-04 </wgt>
<wgt id='morphing_basis_vector_3'> +2.4404931e-04 </wgt>
<wgt id='morphing_basis_vector_4'> +1.2394254e-04 </wgt>
<wgt id='morphing_basis_vector_5'> +1.9342837e-04 </wgt>
</rwgt>
</event>
<event>
 4      1 +5.9529000e-06 7.44497200e+02 7.81860800e-03 8.97489400e-02
        2 -1    0    0  501    0 +0.0000000000e+00 +0.0000000000e+00 +6.5150490699e+02 6.5150490699e+02 0.0000000000e+00 0.0000e+00 -1.0000e+00
       -2 -1    0    0    0  501 -0.0000000000e+00 -0.0000000000e+00 -2.1269066355e+02 2.1269066355e+02 0.0000000000e+00 0.0000e+00 1.0000e+00
      -13  1    1    2    0    0 +2.4699385300e+02 +2.0881858086e+02 +5.5030454756e+00 3.2348330195e+02 0.0000000000e+00 0.0000e+00 1.0000e+00
       13  1    1    2    0    0 -2.4699385300e+02 -2.0881858086e+02 +4.3331119796e+02 5.4071226859e+02 0.0000000000e+00 0.0000e+00 -1.0000e+00
<mgrwt>
<rscale>  0 0.74449718E+03</rscale>
<asrwt>0</asrwt>
<pdfrwt beam="1">  1        2 0.10023152E+00 0.74449718E+03</pdfrwt>
<pdfrwt beam="2">  1       -2 0.32721641E-01 0.74449718E+03</pdfrwt>
<totfact> 0.46242389E+02</totfact>
</mgrwt>
<rwgt>
<wgt id='morphing_basis_vector_1'> +3.2608892e-04 </wgt>
<wgt id='morphing_basis_vector_2'> +1.9713182e-04 </wgt>
<wgt id='morphing_basis_vector_3'> +2.8446238e-04 </wgt>
<wgt id='morphing_basis_vector_4'> +1.4755428e-04 </wgt>
<wgt id='morphing_basis_vector_5'> +2.3252041e-04 </wgt>
</rwgt>
</event>
<event>
 4      1 +5.9529000e-06 6.82442600e+02 7.81860800e-03 9.06449400e-02
        2 -1    0    0  501    0 +0.0000000000e+00 +0.0000000000e+00 +1.2330006422e+03 1.2330006422e+03 0.0000000000e+00 0.0000e+00 -1.0000e+00
       -2 -1    0    0    0  501 -0.0000000000e+00 -0.0000000000e+00 -9.4429770891e+01 9.4429770891e+01 0.0000000000e+00 0.0000e+00 1.0000e+00
      -13  1    1    2    0    0 +1.7154478756e+02 +2.6323428287e+02 +3.1041630597e+02 4.4167656133e+02 0.0000000000e+00 0.0000e+00 1.0000e+00
       13  1    1    2    0    0 -1.7154478756e+02 -2.6323428287e+02 +8.2815456534e+02 8.8575385176e+02 0.0000000000e+00 0.0000e+00 -1.0000e+00
<mgrwt>
<rscale>  0 0.68244258E+03</rscale>
<asrwt>0</asrwt>
<pdfrwt beam="1">  1        2 0.18969239E+00 0.68244258E+03</pdfrwt>
<pdfrwt beam="2">  1       -2 0.14527658E-01 0.68244258E+03</pdfrwt>
<totfact> 0.76391593E+02</totfact>
</mgrwt>
<rwgt>
<wgt id='morphing_basis_vector_1'> +2.4240120e-04 </wgt>
<wgt id='morphing_basis_vector_2'> +1.4575351e-04 </wgt>
<wgt id='morphing_basis_vector_3'> +2.0334053e-04 </wgt>
<wgt id='morphing_basis_vector_4'> +9.7950531e-05 </wgt>
<wgt id='morphing_basis_vector_5'> +1.5393502e-04 </wgt>
</rwgt>
</event>
<event>
 4      1 +5.9529000e-06 6.93892200e+02 7.81860800e-03 9.04723200e-02
        2 -1    0    0  501    0 +0.0000000000e+00 +0.0000000000e+00 +1.4762021587e+02 1.4762021587e+02 0.0000000000e+00 0.0000e+00 -1.0000e+00
       -2 -1    0    0    0  501 -0.0000000000e+00 -0.0000000000e+00 -8.1541406870e+02 8.1541406870e+02 0.0000000000e+00 0.0000e+00 1.0000e+00
      -13  1    1    2    0    0 +2.7854634108e+02 +6.2447478266e+01 -6.0757144301e+02 6.7129040663e+02 0.0000000000e+00 0.0000e+00 1.0000e+00
       13  1    1    2    0    0 -2.7854634108e+02 -6.2447478266e+01 -6.0222409828e+01 2.9174387794e+02 0.0000000000e+00 0.0000e+00 -1.0000e+00
<mgrwt>
<rscale>  0 0.69389221E+03</rscale>
<asrwt>0</asrwt>
<pdfrwt beam="1">  1        2 0.22710802E-01 0.69389221E+03</pdfrwt>
<pdfrwt beam="2">  1       -2 0.12544832E+00 0.69389221E+03</pdfrwt>
<totfact> 0.14530159E+02</totfact>
</mgrwt>
<rwgt>
<wgt id='morphing_basis_vector_1'> +2.5542955e-04 </wgt>
<wgt id='morphing_basis_vector_2'> +1.5135077e-04 </wgt>
<wgt id='morphing_basis_vector_3'> +2.1645988e-04 </wgt>
<wgt id='morphing_basis_vector_4'> +1.0700682e-04 </wgt>
<wgt id='morphing_basis_vector_5'> +1.6676191e-04 </wgt>
</rwgt>
</event>
<event>
 4      1 +5.9529000e-06 6.49195700e+02 7.81860800e-03 9.11669300e-02
        2 -1    0    0  501    0 +0.0000000000e+00 +0.0000000000e+00 +6.6117990006e+02 6.6117990006e+02 0.0000000000e+00 0.0000e+00 -1.0000e+00
       -2 -1    0    0    0  501 -0.0000000000e+00 -0.0000000000e+00 -1.5935717601e+02 1.5935717601e+02 0.0000000000e+00 0.0000e+00 1.0000e+00
      -13  1    1    2    0    0 +1.7580074141e+02 -2.5941624664e+02 +1.4395377408e+02 3.4485559119e+02 0.0000000000e+00 0.0000e+00 1.0000e+00
       13  1    1    2    0    0 -1.7580074141e+02 +2.5941624664e+02 +3.5786894997e+02 4.7568148488e+02 0.0000000000e+00 0.0000e+00 -1.0000e+00
<mgrwt>
<rscale>  0 0.64919569E+03</rscale>
<asrwt>0</asrwt>
<pdfrwt beam="1">  1        2 0.10171998E+00 0.64919569E+03</pdfrwt>
<pdfrwt beam="2">  1       -2 0.24516489E-01 0.64919569E+03</pdfrwt>
<totfact> 0.75426040E+02</totfact>
</mgrwt>
<rwgt>
<wgt id='morphing_basis_vector_1'> +2.0593338e-04 </wgt>
<wgt id='morphing_basis_vector_2'> +1.2533946e-04 </wgt>
<wgt id='morphing_basis_vector_3'> +1.6804998e-04 </wgt>
<wgt id='morphing_basis_vector_4'> +7.6401713e-05 </wgt>
<wgt id='morphing_basis_vector_5'> +1.2069932e-04 </wgt>
</rwgt>
</event>
<event>
 4      1 +5.9529000e-06 6.60269800e+02 7.81860800e-03 9.09895000e-02
        2 -1    0    0  501    0 +0.0000000000e+00 +0.0000000000e+00 +4.3345484216e+02 4.3345484216e+02 0.0000000000e+00 0.0000e+00 -1.0000e+00
       -2 -1    0    0    0  501 -0.0000000000e+00 -0.0000000000e+00 -2.5144266264e+02 2.5144266264e+02 0.0000000000e+00 0.0000e+00 1.0000e+00
      -13  1    1    2    0    0 +2.6723847342e+01 -2.7392453324e+02 -9.8113343416e+01 2.9219007869e+02 0.0000000000e+00 0.0000e+00 1.0000e+00
       13  1    1    2    0    0 -2.6723847342e+01 +2.7392453324e+02 +2.8012552294e+02 3.9270742612e+02 0.0000000000e+00 0.0000e+00 -1.0000e+00
<mgrwt>
<rscale>  0 0.66026976E+03</rscale>
<asrwt>0</asrwt>
<pdfrwt beam="1">  1        2 0.66685360E-01 0.66026976E+03</pdfrwt>
<pdfrwt beam="2">  1       -2 0.38683487E-01 0.66026976E+03</pdfrwt>
<totfact> 0.54773408E+02</totfact>
</mgrwt>
<rwgt>
<wgt id='morphing_basis_vector_1'> +2.1591367e-04 </wgt>
<wgt id='morphing_basis_vector_2'> +1.2678676e-04 </wgt>
<wgt id='morphing_basis_vector_3'> +1.7887846e-04 </wgt>
<wgt id='morphing_basis_vector_4'> +8.4697977e-05 </wgt>
<wgt id='morphing_basis_vector_5'> +1.3116292e-04 </wgt>
</rwgt>
</event>
<event>
 4      1 +5.9529000e-06 7.21068600e+02 7.81860800e-03 9.00761000e-02
        2 -1    0    0  501    0 +0.0000000000e+00 +0.0000000000e+00 +1.3040618545e+03 1.3040618545e+03 0.0000000000e+00 0.0000e+00 -1.0000e+00
       -2 -1    0    0    0  501 -0.0000000000e+00 -0.0000000000e+00 -9.9677004726e+01 9.9677004726e+01 0.0000000000e+00 0.0000e+00 1.0000e+00
      -13  1    1    2    0    0 -3.6685254896e+01 -2.7578766996e+02 +1.5579528134e+02 3.1886802366e+02 0.0000000000e+00 0.0000e+00 1.0000e+00
       13  1    1    2    0    0 +3.6685254896e+01 +2.7578766996e+02 +1.0485895684e+03 1.0848708355e+03 0.0000000000e+00 0.0000e+00 -1.0000e+00
<mgrwt>
<rscale>  0 0.72106859E+03</rscale>
<asrwt>0</asrwt>
<pdfrwt beam="1">  1        2 0.20062489E+00 0.72106859E+03</pdfrwt>
<pdfrwt beam="2">  1       -2 0.15334925E-01 0.72106859E+03</pdfrwt>
<totfact> 0.63670945E+02</totfact>
</mgrwt>
<rwgt>
<wgt id='morphing_basis_vector_1'> +2.9115812e-04 </wgt>
<wgt id='morphing_basis_vector_2'> +1.7314753e-04 </wgt>
<wgt id='morphing_basis_vector_3'> +2.5097285e-04 </wgt>
<wgt id='morphing_basis_vector_4'> +1.2818796e-04 </wgt>
<wgt id='morphing_basis_vector_5'> +2.0016133e-04 </wgt>
</rwgt>
</event>
<event>
 4      1 +5.9529000e-06 6.69858500e+02 7.81860800e-03 9.08387900e-02
        2 -1    0    0  501    0 +0.0000000000e+00 +0.0000000000e+00 +1.1353521990e+03 1.1353521990e+03 0.0000000000e+00 0.0000e+00 -1.0000e+00
       -2 -1    0    0    0  501 -0.0000000000e+00 -0.0000000000e+00 -9.8804235509e+01 9.8804235509e+01 0.0000000000e+00 0.0000e+00 1.0000e+00
      -13  1    1    2    0    0 -1.0601409561e+02 -3.0154510017e+02 +3.3394816436e+02 4.6226595417e+02 0.0000000000e+00 0.0000e+00 1.0000e+00
       13  1    1    2    0    0 +1.0601409561e+02 +3.0154510017e+02 +7.0259979916e+02 7.7189048037e+02 0.0000000000e+00 0.0000e+00 -1.0000e+00
<mgrwt>
<rscale>  0 0.66985851E+03</rscale>
<asrwt>0</asrwt>
<pdfrwt beam="1">  1        2 0.17466956E+00 0.66985851E+03</pdfrwt>
<pdfrwt beam="2">  1       -2 0.15200652E-01 0.66985851E+03</pdfrwt>
<totfact> 0.80922991E+02</totfact>
</mgrwt>
<rwgt>
<wgt id='morphing_basis_vector_1'> +2.2839652e-04 </wgt>
<wgt id='morphing_basis_vector_2'> +1.3883861e-04 </wgt>
<wgt id='morphing_basis_vector_3'> +1.8948760e-04 </wgt>
<wgt id='morphing_basis_vector_4'> +8.8973054e-05 </wgt>
<wgt id='morphing_basis_vector_5'> +1.4067301e-04 </wgt>
</rwgt>
</event>
<event>
 4      1 +5.9529000e-06 7.48350700e+02 7.81860800e-03 8.96963600e-02
        2 -1    0    0  501    0 +0.0000000000e+00 +0.0000000000e+00 +2.4179188223e+03 2.4179188223e+03 0.0000000000e+00 0.0000e+00 1.0000e+00
       -2 -1    0    0    0  501 -0.0000000000e+00 -0.0000000000e+00 -5.7904012658e+01 5.7904012658e+01 0.0000000000e+00 0.0000e+00 -1.0000e+00
      -13  1    1    2    0    0 +6.4114983772e+01 -3.4407011094e+02 +1.6178168258e+03 1.6552420531e+03 0.0000000000e+00 0.0000e+00 1.0000e+00
       13  1    1    2    0    0 -6.4114983772e+01 +3.4407011094e+02 +7.4219798379e+02 8.2058078184e+02 0.0000000000e+00 0.0000e+00 -1.0000e+00
<mgrwt>
<rscale>  0 0.74835073E+03</rscale>
<asrwt>0</asrwt>
<pdfrwt beam="1">  1        2 0.37198743E+00 0.74835073E+03</pdfrwt>
<pdfrwt beam="2">  1       -2 0.89083115E-02 0.74835073E+03</pdfrwt>
<totfact> 0.36219316E+02</totfact>
</mgrwt>
<rwgt>
<wgt id='morphing_basis_vector_1'> +3.6881759e-04 </wgt>
<wgt id='morphing_basis_vector_2'> +3.1401334e-04 </wgt>
<wgt id='morphing_basis_vector_3'> +3.0779879e-04 </wgt>
<wgt id='morphing_basis_vector_4'> +1.0834703e-04 </wgt>
<wgt id='morphing_basis_vector_5'> +2.3668012e-04 </wgt>
</rwgt>
</event>
<event>
 4      1 +5.9529000e-06 7.22675400e+02 7.81860800e-03 9.00532500e-02
        2 -1    0    0  501    0 +0.0000000000e+00 +0.0000000000e+00 +8.9931737054e+02 8.9931737054e+02 0.0000000000e+00 0.0000e+00 -1.0000e+00
       -2 -1    0    0    0  501 -0.0000000000e+00 -0.0000000000e+00 -1.4518226088e+02 1.4518226088e+02 0.0000000000e+00 0.0000e+00 1.0000e+00
      -13  1    1    2    0    0 -2.1882409903e+02 +1.7536961017e+02 +4.7716307748e+01 2.8445620491e+02 0.0000000000e+00 0.0000e+00 1.0000e+00
       13  1    1    2    0    0 +2.1882409903e+02 -1.7536961017e+02 +7.0641880191e+02 7.6004342651e+02 0.0000000000e+00 0.0000e+00 -1.0000e+00
<mgrwt>
<rscale>  0 0.72267539E+03</rscale>
<asrwt>0</asrwt>
<pdfrwt beam="1">  1        2 0.13835651E+00 0.72267539E+03</pdfrwt>
<pdfrwt beam="2">  1       -2 0.22335733E-01 0.72267539E+03</pdfrwt>
<totfact> 0.59750573E+02</totfact>
</mgrwt>
<rwgt>
<wgt id='morphing_basis_vector_1'> +2.9342487e-04 </wgt>
<wgt id='morphing_basis_vector_2'> +1.7462376e-04 </wgt>
<wgt id='morphing_basis_vector_3'> +2.5315247e-04 </wgt>
<wgt id='morphing_basis_vector_4'> +1.2948841e-04 </wgt>
<wgt id='morphing_basis_vector_5'> +2.0227254e-04 </wgt>
</rwgt>
</event>
<event>
 4      1 +5.9529000e-06 6.83824600e+02 7.81860800e-03 9.06239200e-02
        2 -1    0    0  501    0 +0.0000000000e+00 +0.0000000000e+00 +6.7419746737e+02 6.7419746737e+02 0.0000000000e+00 0.0000e+00 -1.0000e+00
       -2 -1    0    0    0  501 -0.0000000000e+00 -0.0000000000e+00 -1.7339728905e+02 1.7339728905e+02 0.0000000000e+00 0.0000e+00 1.0000e+00
      -13  1    1    2    0    0 +1.1941206272e+02 +2.8638397230e+02 +7.2374444161e+01 3.1861117445e+02 0.0000000000e+00 0.0000e+00 1.0000e+00
       13  1    1    2    0    0 -1.1941206272e+02 -2.8638397230e+02 +4.2842573416e+02 5.2898358198e+02 0.0000000000e+00 0.0000e+00 -1.0000e+00
<mgrwt>
<rscale>  0 0.68382458E+03</rscale>
<asrwt>0</asrwt>
<pdfrwt beam="1">  1        2 0.10372269E+00 0.68382458E+03</pdfrwt>
<pdfrwt beam="2">  1       -2 0.26676506E-01 0.68382458E+03</pdfrwt>
<totfact> 0.63678024E+02</totfact>
</mgrwt>
<rwgt>
<wgt id='morphing_basis_vector_1'> +2.4384364e-04 </wgt>
<wgt id='morphing_basis_vector_2'> +1.4610835e-04 </wgt>
<wgt id='morphing_basis_vector_3'> +2.0486353e-04 </wgt>
<wgt id='morphing_basis_vector_4'> +9.9114298e-05 </wgt>
<wgt id='morphing_basis_vector_5'> +1.5544677e-04 </wgt>
</rwgt>
</event>
<event>
 4      1 +5.9529000e-06 6.67997500e+02 7.81860800e-03 9.08678300e-02
        2 -1    0    0  501    0 +0.0000000000e+00 +0.0000000000e+00 +5.1154648316e+02 5.1154648316e+02 0.0000000000e+00 0.0000e+00 -1.0000e+00
       -2 -1    0    0    0  501 -0.0000000000e+00 -0.0000000000e+00 -2.1807433574e+02 2.1807433574e+02 0.0000000000e+00 0.0000e+00 1.0000e+00
      -13  1    1    2    0    0 -1.1751907864e+02 +2.7266355922e+02 -2.0342640624e+01 2.9760707888e+02 0.0000000000e+00 0.0000e+00 1.0000e+00
       13  1    1    2    0    0 +1.1751907864e+02 -2.7266355922e+02 +3.1381478804e+02 4.3201374002e+02 0.0000000000e+00 0.0000e+00 -1.0000e+00
<mgrwt>
<rscale>  0 0.66799748E+03</rscale>
<asrwt>0</asrwt>
<pdfrwt beam="1">  1        2 0.78699459E-01 0.66799748E+03</pdfrwt>
<pdfrwt beam="2">  1       -2 0.33549898E-01 0.66799748E+03</pdfrwt>
<totfact> 0.58793083E+02</totfact>
</mgrwt>
<rwgt>
<wgt id='morphing_basis_vector_1'> +2.2500672e-04 </wgt>
<wgt id='morphing_basis_vector_2'> +1.3359205e-04 </wgt>
<wgt id='morphing_basis_vector_3'> +1.8714965e-04 </wgt>
<wgt id='morphing_basis_vector_4'> +8.9033547e-05 </wgt>
<wgt id='morphing_basis_vector_5'> +1.3880737e-04 </wgt>
</rwgt>
</event>
<event>
 4      1 +5.9529000e-06 6.43486100e+02 7.81860800e-03 9.12598700e-02
        2 -1    0    0  501    0 +0.0000000000e+00 +0.0000000000e+00 +1.2337759255e+03 1.2337759255e+03 0.0000000000e+00 0.0000e+00 -1.0000e+00
       -2 -1    0    0    0  501 -0.0000000000e+00 -0.0000000000e+00 -8.3903885625e+01 8.3903885625e+01 0.0000000000e+00 0.0000e+00 1.0000e+00
      -13  1    1    2    0    0 +9.8983436443e+01 -2.2771042318e+02 +1.5593395773e+02 2.9319815260e+02 0.0000000000e+00 0.0000e+00 1.0000e+00
       13  1    1    2    0    0 -9.8983436443e+01 +2.2771042318e+02 +9.9393808215e+02 1.0244816585e+03 0.0000000000e+00 0.0000e+00 -1.0000e+00
<mgrwt>
<rscale>  0 0.64348611E+03</rscale>
<asrwt>0</asrwt>
<pdfrwt beam="1">  1        2 0.18981167E+00 0.64348611E+03</pdfrwt>
<pdfrwt beam="2">  1       -2 0.12908291E-01 0.64348611E+03</pdfrwt>
<totfact> 0.92400702E+02</totfact>
</mgrwt>
<rwgt>
<wgt id='morphing_basis_vector_1'> +1.9782390e-04 </wgt>
<wgt id='morphing_basis_vector_2'> +1.1492138e-04 </wgt>
<wgt id='morphing_basis_vector_3'> +1.6207778e-04 </wgt>
<wgt id='morphing_basis_vector_4'> +7.5181068e-05 </wgt>
<wgt id='morphing_basis_vector_5'> +1.1557589e-04 </wgt>
</rwgt>
</event>
<event>
 4      1 +5.9529000e-06 6.42320800e+02 7.81860800e-03 9.12789600e-02
        2 -1    0    0  501    0 +0.0000000000e+00 +0.0000000000e+00 +1.7787046368e+03 1.7787046368e+03 0.0000000000e+00 0.0000e+00 -1.0000e+00
       -2 -1    0    0    0  501 -0.0000000000e+00 -0.0000000000e+00 -5.7988266162e+01 5.7988266162e+01 0.0000000000e+00 0.0000e+00 1.0000e+00
      -13  1    1    2    0    0 -2.2096095934e+02 -2.2157980267e+02 +1.0670054962e+03 1.1119451801e+03 0.0000000000e+00 0.0000e+00 1.0000e+00
       13  1    1    2    0    0 +2.2096095934e+02 +2.2157980267e+02 +6.5371087437e+02 7.2474772285e+02 0.0000000000e+00 0.0000e+00 -1.0000e+00
<mgrwt>
<rscale>  0 0.64232079E+03</rscale>
<asrwt>0</asrwt>
<pdfrwt beam="1">  1        2 0.27364683E+00 0.64232079E+03</pdfrwt>
<pdfrwt beam="2">  1       -2 0.89212731E-02 0.64232079E+03</pdfrwt>
<totfact> 0.82746840E+02</totfact>
</mgrwt>
<rwgt>
<wgt id='morphing_basis_vector_1'> +2.1101779e-04 </wgt>
<wgt id='morphing_basis_vector_2'> +1.5869127e-04 </wgt>
<wgt id='morphing_basis_vector_3'> +1.6340967e-04 </wgt>
<wgt id='morphing_basis_vector_4'> +6.1598584e-05 </wgt>
<wgt id='morphing_basis_vector_5'> +1.1441051e-04 </wgt>
</rwgt>
</event>
<event>
 4      1 +5.9529000e-06 6.71709200e+02 7.81860800e-03 9.08100000e-02
        2 -1    0    0  501    0 +0.0000000000e+00 +0.0000000000e+00 +3.7175749560e+02 3.7175749560e+02 0.0000000000e+00 0.0000e+00 1.0000e+00
       -2 -1    0    0    0  501 -0.0000000000e+00 -0.0000000000e+00 -3.0341911085e+02 3.0341911085e+02 0.0000000000e+00 0.0000e+00 -1.0000e+00
      -13  1    1    2    0    0 +8.4952164423e+01 +8.1681437163e+01 -2.8195321744e+02 3.0559179348e+02 0.0000000000e+00 0.0000e+00 -1.0000e+00
       13  1    1    2    0    0 -8.4952164423e+01 -8.1681437163e+01 +3.5029160218e+02 3.6958481297e+02 0.0000000000e+00 0.0000e+00 1.0000e+00
<mgrwt>
<rscale>  0 0.67170925E+03</rscale>
<asrwt>0</asrwt>
<pdfrwt beam="1">  1        2 0.57193461E-01 0.67170925E+03</pdfrwt>
<pdfrwt beam="2">  1       -2 0.46679863E-01 0.67170925E+03</pdfrwt>
<totfact> 0.45710841E+02</totfact>
</mgrwt>
<rwgt>
<wgt id='morphing_basis_vector_1'> +2.2808209e-04 </wgt>
<wgt id='morphing_basis_vector_2'> +1.3263583e-04 </wgt>
<wgt id='morphing_basis_vector_3'> +1.9086402e-04 </wgt>
<wgt id='morphing_basis_vector_4'> +9.2538398e-05 </wgt>
<wgt id='morphing_basis_vector_5'> +1.4261396e-04 </wgt>
</rwgt>
</event>
<event>
 4      1 +5.9529000e-06 6.21657000e+02 7.81860800e-03 9.16247400e-02
        2 -1    0    0  501    0 +0.0000000000e+00 +0.0000000000e+00 +1.5614218672e+02 1.5614218672e+02 0.0000000000e+00 0.0000e+00 -1.0000e+00
       -2 -1    0    0    0  501 -0.0000000000e+00 -0.0000000000e+00 -6.1875890524e+02 6.1875890524e+02 0.0000000000e+00 0.0000e+00 1.0000e+00
      -13  1    1    2    0    0 -1.7065386108e+02 -4.0678011533e+01 -5.5114645801e+02 5.7839420735e+02 0.0000000000e+00 0.0000e+00 1.0000e+00
       13  1    1    2    0    0 +1.7065386108e+02 +4.0678011533e+01 +8.8529739491e+01 1.9650688461e+02 0.0000000000e+00 0.0000e+00 -1.0000e+00
<mgrwt>
<rscale>  0 0.62165704E+03</rscale>
<asrwt>0</asrwt>
<pdfrwt beam="1">  1        2 0.24021875E-01 0.62165704E+03</pdfrwt>
<pdfrwt beam="2">  1       -2 0.95193677E-01 0.62165704E+03</pdfrwt>
<totfact> 0.27154744E+02</totfact>
</mgrwt>
<rwgt>
<wgt id='morphing_basis_vector_1'> +1.7616647e-04 </wgt>
<wgt id='morphing_basis_vector_2'> +1.0093452e-04 </wgt>
<wgt id='morphing_basis_vector_3'> +1.4214284e-04 </wgt>
<wgt id='morphing_basis_vector_4'> +6.3945394e-05 </wgt>
<wgt id='morphing_basis_vector_5'> +9.7306535e-05 </wgt>
</rwgt>
</event>
<event>
 4      1 +5.9529000e-06 6.67702200e+02 7.81860800e-03 9.08724500e-02
        2 -1    0    0  501    0 +0.0000000000e+00 +0.0000000000e+00 +2.5380665266e+02 2.5380665266e+02 0.0000000000e+00 0.0000e+00 -1.0000e+00
       -2 -1    0    0    0  501 -0.0000000000e+00 -0.0000000000e+00 -4.3913959254e+02 4.3913959254e+02 0.0000000000e+00 0.0000e+00 1.0000e+00
      -13  1    1    2    0    0 +2.1137286136e+02 -1.1580629790e+02 -3.3241337208e+02 4.1059497694e+02 0.0000000000e+00 0.0000e+00 1.0000e+00
       13  1    1    2    0    0 -2.1137286136e+02 +1.1580629790e+02 +1.4708043220e+02 2.8235126826e+02 0.0000000000e+00 0.0000e+00 -1.0000e+00
<mgrwt>
<rscale>  0 0.66770218E+03</rscale>
<asrwt>0</asrwt>
<pdfrwt beam="1">  1        2 0.39047178E-01 0.66770218E+03</pdfrwt>
<pdfrwt beam="2">  1       -2 0.67559936E-01 0.66770218E+03</pdfrwt>
<totfact> 0.33398837E+02</totfact>
</mgrwt>
<rwgt>
<wgt id='morphing_basis_vector_1'> +2.2379085e-04 </wgt>
<wgt id='morphing_basis_vector_2'> +1.3066172e-04 </wgt>
<wgt id='morphing_basis_vector_3'> +1.8661017e-04 </wgt>
<wgt id='morphing_basis_vector_4'> +8.9701567e-05 </wgt>
<wgt id='morphing_basis_vector_5'> +1.3852470e-04 </wgt>
</rwgt>
</event>
<event>
 4      1 +5.9529000e-06 6.66746700e+02 7.81860800e-03 9.08874100e-02
        2 -1    0    0  501    0 +0.0000000000e+00 +0.0000000000e+00 +1.9823760660e+02 1.9823760660e+02 0.0000000000e+00 0.0000e+00 -1.0000e+00
       -2 -1    0    0    0  501 -0.0000000000e+00 -0.0000000000e+00 -5.6062925036e+02 5.6062925036e+02 0.0000000000e+00 0.0000e+00 1.0000e+00
      -13  1    1    2    0    0 -2.4589911534e+02 +1.0477677408e+02 -4.0795404200e+02 4.8772025558e+02 0.0000000000e+00 0.0000e+00 1.0000e+00
       13  1    1    2    0    0 +2.4589911534e+02 -1.0477677408e+02 +4.5562398248e+01 2.7114660139e+02 0.0000000000e+00 0.0000e+00 -1.0000e+00
<mgrwt>
<rscale>  0 0.66674673E+03</rscale>
<asrwt>0</asrwt>
<pdfrwt beam="1">  1        2 0.30498093E-01 0.66674673E+03</pdfrwt>
<pdfrwt beam="2">  1       -2 0.86250653E-01 0.66674673E+03</pdfrwt>
<totfact> 0.25825060E+02</totfact>
</mgrwt>
<rwgt>
<wgt id='morphing_basis_vector_1'> +2.2296659e-04 </wgt>
<wgt id='morphing_basis_vector_2'> +1.3077934e-04 </wgt>
<wgt id='morphing_basis_vector_3'> +1.8565310e-04 </wgt>
<wgt id='morphing_basis_vector_4'> +8.8851886e-05 </wgt>
<wgt id='morphing_basis_vector_5'> +1.3755886e-04 </wgt>
</rwgt>
</event>
<event>
 4      1 +5.9529000e-06 6.60177200e+02 7.81860800e-03 9.09909700e-02
        2 -1    0    0  501    0 +0.0000000000e+00 +0.0000000000e+00 +5.3552254164e+02 5.3552254164e+02 0.0000000000e+00 0.0000e+00 -1.0000e+00
       -2 -1    0    0    0  501 -0.0000000000e+00 -0.0000000000e+00 -2.0346196592e+02 2.0346196592e+02 0.0000000000e+00 0.0000e+00 1.0000e+00
      -13  1    1    2    0    0 +2.4312007513e+02 +2.0769347088e+02 +7.4306424525e+01 3.2827639803e+02 0.0000000000e+00 0.0000e+00 1.0000e+00
       13  1    1    2    0    0 -2.4312007513e+02 -2.0769347088e+02 +2.5775415120e+02 4.1070810953e+02 0.0000000000e+00 0.0000e+00 -1.0000e+00
<mgrwt>
<rscale>  0 0.66017716E+03</rscale>
<asrwt>0</asrwt>
<pdfrwt beam="1">  1        2 0.82388083E-01 0.66017716E+03</pdfrwt>
<pdfrwt beam="2">  1       -2 0.31301841E-01 0.66017716E+03</pdfrwt>
<totfact> 0.63138594E+02</totfact>
</mgrwt>
<rwgt>
<wgt id='morphing_basis_vector_1'> +2.1800006e-04 </wgt>
<wgt id='morphing_basis_vector_2'> +1.3348569e-04 </wgt>
<wgt id='morphing_basis_vector_3'> +1.7928245e-04 </wgt>
<wgt id='morphing_basis_vector_4'> +8.2565180e-05 </wgt>
<wgt id='morphing_basis_vector_5'> +1.3104010e-04 </wgt>
</rwgt>
</event>
<event>
 4      1 +5.9529000e-06 7.00186100e+02 7.81860800e-03 9.03789000e-02
        2 -1    0    0  501    0 +0.0000000000e+00 +0.0000000000e+00 +9.0955184645e+02 9.0955184645e+02 0.0000000000e+00 0.0000e+00 -1.0000e+00
       -2 -1    0    0    0  501 -0.0000000000e+00 -0.0000000000e+00 -1.3475333332e+02 1.3475333332e+02 0.0000000000e+00 0.0000e+00 1.0000e+00
      -13  1    1    2    0    0 -5.3984063551e+01 +2.5946257475e+02 +4.6214620492e+01 2.6901839707e+02 0.0000000000e+00 0.0000e+00 1.0000e+00
       13  1    1    2    0    0 +5.3984063551e+01 -2.5946257475e+02 +7.2858389264e+02 7.7528678270e+02 0.0000000000e+00 0.0000e+00 -1.0000e+00
<mgrwt>
<rscale>  0 0.70018610E+03</rscale>
<asrwt>0</asrwt>
<pdfrwt beam="1">  1        2 0.13993105E+00 0.70018610E+03</pdfrwt>
<pdfrwt beam="2">  1       -2 0.20731283E-01 0.70018610E+03</pdfrwt>
<totfact> 0.66740077E+02</totfact>
</mgrwt>
<rwgt>
<wgt id='morphing_basis_vector_1'> +2.6312221e-04 </wgt>
<wgt id='morphing_basis_vector_2'> +1.5540754e-04 </wgt>
<wgt id='morphing_basis_vector_3'> +2.2401909e-04 </wgt>
<wgt id='morphing_basis_vector_4'> +1.1193335e-04 </wgt>
<wgt id='morphing_basis_vector_5'> +1.7412122e-04 </wgt>
</rwgt>
</event>
<event>
 4      1 +5.9529000e-06 6.41644500e+02 7.81860800e-03 9.12900600e-02
        2 -1    0    0  501    0 +0.0000000000e+00 +0.0000000000e+00 +6.7233603822e+02 6.7233603822e+02 0.0000000000e+00 0.0000e+00 1.0000e+00
       -2 -1    0    0    0  501 -0.0000000000e+00 -0.0000000000e+00 -1.5308849678e+02 1.5308849678e+02 0.0000000000e+00 0.0000e+00 -1.0000e+00
      -13  1    1    2    0    0 +2.3480543382e+02 -6.4743649965e+01 -8.9935569752e+00 2.4373390414e+02 0.0000000000e+00 0.0000e+00 -1.0000e+00
       13  1    1    2    0    0 -2.3480543382e+02 +6.4743649965e+01 +5.2824109842e+02 5.8169063085e+02 0.0000000000e+00 0.0000e+00 1.0000e+00
<mgrwt>
<rscale>  0 0.64164449E+03</rscale>
<asrwt>0</asrwt>
<pdfrwt beam="1">  1        2 0.10343631E+00 0.64164449E+03</pdfrwt>
<pdfrwt beam="2">  1       -2 0.23552077E-01 0.64164449E+03</pdfrwt>
<totfact> 0.79155770E+02</totfact>
</mgrwt>
<rwgt>
<wgt id='morphing_basis_vector_1'> +1.9590765e-04 </wgt>
<wgt id='morphing_basis_vector_2'> +1.1365187e-04 </wgt>
<wgt id='morphing_basis_vector_3'> +1.6031255e-04 </wgt>
<wgt id='morphing_basis_vector_4'> +7.4192178e-05 </wgt>
<wgt id='morphing_basis_vector_5'> +1.1394896e-04 </wgt>
</rwgt>
</event>
<event>
 4      1 +5.9529000e-06 6.97309200e+02 7.81860800e-03 9.04214800e-02
        2 -1    0    0  501    0 +0.0000000000e+00 +0.0000000000e+00 +6.4312393536e+02 6.4312393536e+02 0.0000000000e+00 0.0000e+00 1.0000e+00
       -2 -1    0    0    0  501 -0.0000000000e+00 -0.0000000000e+00 -1.8901493230e+02 1.8901493230e+02 0.0000000000e+00 0.0000e+00 -1.0000e+00
      -13  1    1    2    0    0 +3.7859687754e+01 -2.9297367914e+02 +6.0639245701e+00 2.9547200174e+02 0.0000000000e+00 0.0000e+00 -1.0000e+00
       13  1    1    2    0    0 -3.7859687754e+01 +2.9297367914e+02 +4.4804507849e+02 5.3666686593e+02 0.0000000000e+00 0.0000e+00 1.0000e+00
<mgrwt>
<rscale>  0 0.69730919E+03</rscale>
<asrwt>0</asrwt>
<pdfrwt beam="1">  1        2 0.98942143E-01 0.69730919E+03</pdfrwt>
<pdfrwt beam="2">  1       -2 0.29079221E-01 0.69730919E+03</pdfrwt>
<totfact> 0.57971869E+02</totfact>
</mgrwt>
<rwgt>
<wgt id='morphing_basis_vector_1'> +2.5992954e-04 </wgt>
<wgt id='morphing_basis_vector_2'> +1.5460958e-04 </wgt>
<wgt id='morphing_basis_vector_3'> +2.2065820e-04 </wgt>
<wgt id='morphing_basis_vector_4'> +1.0929935e-04 </wgt>
<wgt id='morphing_basis_vector_5'> +1.7072005e-04 </wgt>
</rwgt>
</event>
<event>
 4      1 +5.9529000e-06 7.20055600e+02 7.81860800e-03 9.00905400e-02
        2 -1    0    0  501    0 +0.0000000000e+00 +0.0000000000e+00 +3.4297886642e+02 3.4297886642e+02 0.0000000000e+00 0.0000e+00 -1.0000e+00
       -2 -1    0    0    0  501 -0.0000000000e+00 -0.0000000000e+00 -3.7792425286e+02 3.7792425286e+02 0.0000000000e+00 0.0000e+00 1.0000e+00
      -13  1    1    2    0    0 +3.1876933357e+02 +1.6726111080e+02 -2.2943978835e+01 3.6071677723e+02 0.0000000000e+00 0.0000e+00 1.0000e+00
       13  1    1    2    0    0 -3.1876933357e+02 -1.6726111080e+02 -1.2001407607e+01 3.6018634205e+02 0.0000000000e+00 0.0000e+00 -1.0000e+00
<mgrwt>
<rscale>  0 0.72005564E+03</rscale>
<asrwt>0</asrwt>
<pdfrwt beam="1">  1        2 0.52765979E-01 0.72005564E+03</pdfrwt>
<pdfrwt beam="2">  1       -2 0.58142193E-01 0.72005564E+03</pdfrwt>
<totfact> 0.32389041E+02</totfact>
</mgrwt>
<rwgt>
<wgt id='morphing_basis_vector_1'> +2.9873247e-04 </wgt>
<wgt id='morphing_basis_vector_2'> +1.9991566e-04 </wgt>
<wgt id='morphing_basis_vector_3'> +2.5324169e-04 </wgt>
<wgt id='morphing_basis_vector_4'> +1.1748975e-04 </wgt>
<wgt id='morphing_basis_vector_5'> +1.9854107e-04 </wgt>
</rwgt>
</event>
<event>
 4      1 +5.9529000e-06 6.24977000e+02 7.81860800e-03 9.15682400e-02
        2 -1    0    0  501    0 +0.0000000000e+00 +0.0000000000e+00 +4.4845784751e+02 4.4845784751e+02 0.0000000000e+00 0.0000e+00 -1.0000e+00
       -2 -1    0    0    0  501 -0.0000000000e+00 -0.0000000000e+00 -2.1774410501e+02 2.1774410501e+02 0.0000000000e+00 0.0000e+00 1.0000e+00
      -13  1    1    2    0    0 -3.1802151156e+01 -1.9479203528e+02 -1.4289160989e+02 2.4366642363e+02 0.0000000000e+00 0.0000e+00 1.0000e+00
       13  1    1    2    0    0 +3.1802151156e+01 +1.9479203528e+02 +3.7360535240e+02 4.2253552889e+02 0.0000000000e+00 0.0000e+00 -1.0000e+00
<mgrwt>
<rscale>  0 0.62497697E+03</rscale>
<asrwt>0</asrwt>
<pdfrwt beam="1">  1        2 0.68993515E-01 0.62497697E+03</pdfrwt>
<pdfrwt beam="2">  1       -2 0.33499093E-01 0.62497697E+03</pdfrwt>
<totfact> 0.68516892E+02</totfact>
</mgrwt>
<rwgt>
<wgt id='morphing_basis_vector_1'> +1.7933572e-04 </wgt>
<wgt id='morphing_basis_vector_2'> +1.0298212e-04 </wgt>
<wgt id='morphing_basis_vector_3'> +1.4504135e-04 </wgt>
<wgt id='morphing_basis_vector_4'> +6.5567719e-05 </wgt>
<wgt id='morphing_basis_vector_5'> +9.9944622e-05 </wgt>
</rwgt>
</event>
<event>
 4      1 +5.9529000e-06 6.42042000e+02 7.81860800e-03 9.12835300e-02
        2 -1    0    0  501    0 +0.0000000000e+00 +0.0000000000e+00 +2.8140732737e+03 2.8140732737e+03 0.0000000000e+00 0.0000e+00 -1.0000e+00
       -2 -1    0    0    0  501 -0.0000000000e+00 -0.0000000000e+00 -3.6621111707e+01 3.6621111707e+01 0.0000000000e+00 0.0000e+00 1.0000e+00
      -13  1    1    2    0    0 -1.3692738280e+02 +2.8246148878e+02 +1.0901883584e+03 1.1344797299e+03 0.0000000000e+00 0.0000e+00 1.0000e+00
       13  1    1    2    0    0 +1.3692738280e+02 -2.8246148878e+02 +1.6872638036e+03 1.7162146555e+03 0.0000000000e+00 0.0000e+00 -1.0000e+00
<mgrwt>
<rscale>  0 0.64204203E+03</rscale>
<asrwt>0</asrwt>
<pdfrwt beam="1">  1        2 0.43293418E+00 0.64204203E+03</pdfrwt>
<pdfrwt beam="2">  1       -2 0.56340194E-02 0.64204203E+03</pdfrwt>
<totfact> 0.43132740E+02</totfact>
</mgrwt>
<rwgt>
<wgt id='morphing_basis_vector_1'> +1.9902384e-04 </wgt>
<wgt id='morphing_basis_vector_2'> +1.2228985e-04 </wgt>
<wgt id='morphing_basis_vector_3'> +1.6114965e-04 </wgt>
<wgt id='morphing_basis_vector_4'> +7.1975787e-05 </wgt>
<wgt id='morphing_basis_vector_5'> +1.1427388e-04 </wgt>
</rwgt>
</event>
<event>
 4      1 +5.9529000e-06 6.46890800e+02 7.81860800e-03 9.12043300e-02
        2 -1    0    0  501    0 +0.0000000000e+00 +0.0000000000e+00 +3.3075330438e+02 3.3075330438e+02 0.0000000000e+00 0.0000e+00 -1.0000e+00
       -2 -1    0    0    0  501 -0.0000000000e+00 -0.0000000000e+00 -3.1629897757e+02 3.1629897757e+02 0.0000000000e+00 0.0000e+00 1.0000e+00
      -13  1    1    2    0    0 +3.4280135026e+01 -7.2618790929e+01 -3.0616927540e+02 3.1652526226e+02 0.0000000000e+00 0.0000e+00 1.0000e+00
       13  1    1    2    0    0 -3.4280135026e+01 +7.2618790929e+01 +3.2062360221e+02 3.3052701969e+02 0.0000000000e+00 0.0000e+00 -1.0000e+00
<mgrwt>
<rscale>  0 0.64689082E+03</rscale>
<asrwt>0</asrwt>
<pdfrwt beam="1">  1        2 0.50885124E-01 0.64689082E+03</pdfrwt>
<pdfrwt beam="2">  1       -2 0.48661381E-01 0.64689082E+03</pdfrwt>
<totfact> 0.48140105E+02</totfact>
</mgrwt>
<rwgt>
<wgt id='morphing_basis_vector_1'> +2.0096526e-04 </wgt>
<wgt id='morphing_basis_vector_2'> +1.1593467e-04 </wgt>
<wgt id='morphing_basis_vector_3'> +1.6530070e-04 </wgt>
<wgt id='morphing_basis_vector_4'> +7.7435838e-05 </wgt>
<wgt id='morphing_basis_vector_5'> +1.1863115e-04 </wgt>
</rwgt>
</event>
<event>
 4      1 +5.9529000e-06 7.00566600e+02 7.81860800e-03 9.03732900e-02
        2 -1    0    0  501    0 +0.0000000000e+00 +0.0000000000e+00 +5.4581456648e+02 5.4581456648e+02 0.0000000000e+00 0.0000e+00 -1.0000e+00
       -2 -1    0    0    0  501 -0.0000000000e+00 -0.0000000000e+00 -2.2479864801e+02 2.2479864801e+02 0.0000000000e+00 0.0000e+00 1.0000e+00
      -13  1    1    2    0    0 -2.3948875352e+01 -2.7800454623e+02 -7.2414634938e+01 2.8827756713e+02 0.0000000000e+00 0.0000e+00 1.0000e+00
       13  1    1    2    0    0 +2.3948875352e+01 +2.7800454623e+02 +3.9343055341e+02 4.8233564736e+02 0.0000000000e+00 0.0000e+00 -1.0000e+00
<mgrwt>
<rscale>  0 0.70056656E+03</rscale>
<asrwt>0</asrwt>
<pdfrwt beam="1">  1        2 0.83971471E-01 0.70056656E+03</pdfrwt>
<pdfrwt beam="2">  1       -2 0.34584408E-01 0.70056656E+03</pdfrwt>
<totfact> 0.51622548E+02</totfact>
</mgrwt>
<rwgt>
<wgt id='morphing_basis_vector_1'> +2.6378012e-04 </wgt>
<wgt id='morphing_basis_vector_2'> +1.5623213e-04 </wgt>
<wgt id='morphing_basis_vector_3'> +2.2454766e-04 </wgt>
<wgt id='morphing_basis_vector_4'> +1.1203955e-04 </wgt>
<wgt id='morphing_basis_vector_5'> +1.7456824e-04 </wgt>
</rwgt>
</event>
<event>
 4      1 +5.9529000e-06 6.23904400e+02 7.81860800e-03 9.15864500e-02
        2 -1    0    0  501    0 +0.0000000000e+00 +0.0000000000e+00 +4.9495186099e+02 4.9495186099e+02 0.0000000000e+00 0.0000e+00 -1.0000e+00
       -2 -1    0    0    0  501 -0.0000000000e+00 -0.0000000000e+00 -1.9661340556e+02 1.9661340556e+02 0.0000000000e+00 0.0000e+00 1.0000e+00
      -13  1    1    2    0    0 -1.7051212118e+02 +2.0632246917e+02 -2.8427539934e+01 2.6916810691e+02 0.0000000000e+00 0.0000e+00 1.0000e+00
       13  1    1    2    0    0 +1.7051212118e+02 -2.0632246917e+02 +3.2676599536e+02 4.2239715964e+02 0.0000000000e+00 0.0000e+00 -1.0000e+00
<mgrwt>
<rscale>  0 0.62390439E+03</rscale>
<asrwt>0</asrwt>
<pdfrwt beam="1">  1        2 0.76146440E-01 0.62390439E+03</pdfrwt>
<pdfrwt beam="2">  1       -2 0.30248216E-01 0.62390439E+03</pdfrwt>
<totfact> 0.73456360E+02</totfact>
</mgrwt>
<rwgt>
<wgt id='morphing_basis_vector_1'> +1.7890239e-04 </wgt>
<wgt id='morphing_basis_vector_2'> +1.0416133e-04 </wgt>
<wgt id='morphing_basis_vector_3'> +1.4416330e-04 </wgt>
<wgt id='morphing_basis_vector_4'> +6.4537158e-05 </wgt>
<wgt id='morphing_basis_vector_5'> +9.9085040e-05 </wgt>
</rwgt>
</event>
<event>
 4      1 +5.9529000e-06 6.48150500e+02 7.81860800e-03 9.11838700e-02
        2 -1    0    0  501    0 +0.0000000000e+00 +0.0000000000e+00 +3.8507561273e+02 3.8507561273e+02 0.0000000000e+00 0.0000e+00 -1.0000e+00
       -2 -1    0    0    0  501 -0.0000000000e+00 -0.0000000000e+00 -2.7273803062e+02 2.7273803062e+02 0.0000000000e+00 0.0000e+00 1.0000e+00
      -13  1    1    2    0    0 +1.4511954329e+02 -1.6716549754e+02 +2.9638460499e+02 3.6992947907e+02 0.0000000000e+00 0.0000e+00 1.0000e+00
       13  1    1    2    0    0 -1.4511954329e+02 +1.6716549754e+02 -1.8404702288e+02 2.8788416428e+02 0.0000000000e+00 0.0000e+00 -1.0000e+00
<mgrwt>
<rscale>  0 0.64815049E+03</rscale>
<asrwt>0</asrwt>
<pdfrwt beam="1">  1        2 0.59242402E-01 0.64815049E+03</pdfrwt>
<pdfrwt beam="2">  1       -2 0.41959697E-01 0.64815049E+03</pdfrwt>
<totfact> 0.53823201E+02</totfact>
</mgrwt>
<rwgt>
<wgt id='morphing_basis_vector_1'> +2.6175431e-04 </wgt>
<wgt id='morphing_basis_vector_2'> +3.0068238e-04 </wgt>
<wgt id='morphing_basis_vector_3'> +1.7780008e-04 </wgt>
<wgt id='morphing_basis_vector_4'> +2.3689839e-05 </wgt>
<wgt id='morphing_basis_vector_5'> +1.1910821e-04 </wgt>
</rwgt>
</event>
<event>
 4      1 +5.9529000e-06 6.53654200e+02 7.81860800e-03 9.10950500e-02
        2 -1    0    0  501    0 +0.0000000000e+00 +0.0000000000e+00 +1.4239119417e+03 1.4239119417e+03 0.0000000000e+00 0.0000e+00 -1.0000e+00
       -2 -1    0    0    0  501 -0.0000000000e+00 -0.0000000000e+00 -7.5015853198e+01 7.5015853198e+01 0.0000000000e+00 0.0000e+00 1.0000e+00
      -13  1    1    2    0    0 -2.5278386751e+02 -2.0602914086e+02 +7.2407124740e+02 7.9412018100e+02 0.0000000000e+00 0.0000e+00 1.0000e+00
       13  1    1    2    0    0 +2.5278386751e+02 +2.0602914086e+02 +6.2482484114e+02 7.0480761393e+02 0.0000000000e+00 0.0000e+00 -1.0000e+00
<mgrwt>
<rscale>  0 0.65365425E+03</rscale>
<asrwt>0</asrwt>
<pdfrwt beam="1">  1        2 0.21906336E+00 0.65365425E+03</pdfrwt>
<pdfrwt beam="2">  1       -2 0.11540902E-01 0.65365425E+03</pdfrwt>
<totfact> 0.86315413E+02</totfact>
</mgrwt>
<rwgt>
<wgt id='morphing_basis_vector_1'> +2.1716216e-04 </wgt>
<wgt id='morphing_basis_vector_2'> +1.4837068e-04 </wgt>
<wgt id='morphing_basis_vector_3'> +1.7386830e-04 </wgt>
<wgt id='morphing_basis_vector_4'> +7.2907822e-05 </wgt>
<wgt id='morphing_basis_vector_5'> +1.2474280e-04 </wgt>
</rwgt>
</event>
<event>
 4      1 +5.9529000e-06 6.45492800e+02 7.81860800e-03 9.12270900e-02
        2 -1    0    0  501    0 +0.0000000000e+00 +0.0000000000e+00 +1.5702499855e+02 1.5702499855e+02 0.0000000000e+00 0.0000e+00 1.0000e+00
       -2 -1    0    0    0  501 -0.0000000000e+00 -0.0000000000e+00 -6.6336713860e+02 6.6336713860e+02 0.0000000000e+00 0.0000e+00 -1.0000e+00
      -13  1    1    2    0    0 -1.4726520757e+02 +3.9153275615e+01 -6.1476878517e+02 6.3337246512e+02 0.0000000000e+00 0.0000e+00 -1.0000e+00
       13  1    1    2    0    0 +1.4726520757e+02 -3.9153275615e+01 +1.0842664513e+02 1.8701967203e+02 0.0000000000e+00 0.0000e+00 1.0000e+00
<mgrwt>
<rscale>  0 0.64549275E+03</rscale>
<asrwt>0</asrwt>
<pdfrwt beam="1">  1        2 0.24157692E-01 0.64549275E+03</pdfrwt>
<pdfrwt beam="2">  1       -2 0.10205649E+00 0.64549275E+03</pdfrwt>
<totfact> 0.22818886E+02</totfact>
</mgrwt>
<rwgt>
<wgt id='morphing_basis_vector_1'> +1.9954658e-04 </wgt>
<wgt id='morphing_basis_vector_2'> +1.1513486e-04 </wgt>
<wgt id='morphing_basis_vector_3'> +1.6394986e-04 </wgt>
<wgt id='morphing_basis_vector_4'> +7.6616367e-05 </wgt>
<wgt id='morphing_basis_vector_5'> +1.1737099e-04 </wgt>
</rwgt>
</event>
<event>
 4      1 +5.9529000e-06 6.81160600e+02 7.81860800e-03 9.06644900e-02
        2 -1    0    0  501    0 +0.0000000000e+00 +0.0000000000e+00 +9.7107624778e+02 9.7107624778e+02 0.0000000000e+00 0.0000e+00 -1.0000e+00
       -2 -1    0    0    0  501 -0.0000000000e+00 -0.0000000000e+00 -1.1944989557e+02 1.1944989557e+02 0.0000000000e+00 0.0000e+00 1.0000e+00
      -13  1    1    2    0    0 -9.0172416623e+01 +1.2321622500e+02 -6.1584461225e+01 1.6463884319e+02 0.0000000000e+00 0.0000e+00 1.0000e+00
       13  1    1    2    0    0 +9.0172416623e+01 -1.2321622500e+02 +9.1321081344e+02 9.2588730016e+02 0.0000000000e+00 0.0000e+00 -1.0000e+00
<mgrwt>
<rscale>  0 0.68116065E+03</rscale>
<asrwt>0</asrwt>
<pdfrwt beam="1">  1        2 0.14939634E+00 0.68116065E+03</pdfrwt>
<pdfrwt beam="2">  1       -2 0.18376908E-01 0.68116065E+03</pdfrwt>
<totfact> 0.74573613E+02</totfact>
</mgrwt>
<rwgt>
<wgt id='morphing_basis_vector_1'> +2.3915952e-04 </wgt>
<wgt id='morphing_basis_vector_2'> +1.3952961e-04 </wgt>
<wgt id='morphing_basis_vector_3'> +2.0137365e-04 </wgt>
<wgt id='morphing_basis_vector_4'> +9.8798395e-05 </wgt>
<wgt id='morphing_basis_vector_5'> +1.5258347e-04 </wgt>
</rwgt>
</event>
<event>
 4      1 +5.9529000e-06 6.86022800e+02 7.81860800e-03 9.05905900e-02
        2 -1    0    0  501    0 +0.0000000000e+00 +0.0000000000e+00 +1.2336450447e+03 1.2336450447e+03 0.0000000000e+00 0.0000e+00 1.0000e+00
       -2 -1    0    0    0  501 -0.0000000000e+00 -0.0000000000e+00 -9.5373330225e+01 9.5373330225e+01 0.0000000000e+00 0.0000e+00 -1.0000e+00
      -13  1    1    2    0    0 +1.5477309776e+02 -2.9234446774e+02 +3.9331409339e+02 5.1392214943e+02 0.0000000000e+00 0.0000e+00 -1.0000e+00
       13  1    1    2    0    0 -1.5477309776e+02 +2.9234446774e+02 +7.4495762107e+02 8.1509622549e+02 0.0000000000e+00 0.0000e+00 1.0000e+00
<mgrwt>
<rscale>  0 0.68602285E+03</rscale>
<asrwt>0</asrwt>
<pdfrwt beam="1">  1        2 0.18979153E+00 0.68602285E+03</pdfrwt>
<pdfrwt beam="2">  1       -2 0.14672821E-01 0.68602285E+03</pdfrwt>
<totfact> 0.75101386E+02</totfact>
</mgrwt>
<rwgt>
<wgt id='morphing_basis_vector_1'> +2.4804676e-04 </wgt>
<wgt id='morphing_basis_vector_2'> +1.5251644e-04 </wgt>
<wgt id='morphing_basis_vector_3'> +2.0788407e-04 </wgt>
<wgt id='morphing_basis_vector_4'> +9.9060500e-05 </wgt>
<wgt id='morphing_basis_vector_5'> +1.5782966e-04 </wgt>
</rwgt>
</event>
<event>
 4      1 +5.9529000e-06 6.60172800e+02 7.81860800e-03 9.09910400e-02
        2 -1    0    0  501    0 +0.0000000000e+00 +0.0000000000e+00 +4.4719486065e+02 4.4719486065e+02 0.0000000000e+00 0.0000e+00 -1.0000e+00
       -2 -1    0    0    0  501 -0.0000000000e+00 -0.0000000000e+00 -2.4364554064e+02 2.4364554064e+02 0.0000000000e+00 0.0000e+00 1.0000e+00
      -13  1    1    2    0    0 -7.3878921461e+01 +2.8922704566e+02 -4.5647833517e+01 3.0198361492e+02 0.0000000000e+00 0.0000e+00 1.0000e+00
       13  1    1    2    0    0 +7.3878921461e+01 -2.8922704566e+02 +2.4919715352e+02 3.8885678636e+02 0.0000000000e+00 0.0000e+00 -1.0000e+00
<mgrwt>
<rscale>  0 0.66017281E+03</rscale>
<asrwt>0</asrwt>
<pdfrwt beam="1">  1        2 0.68799209E-01 0.66017281E+03</pdfrwt>
<pdfrwt beam="2">  1       -2 0.37483929E-01 0.66017281E+03</pdfrwt>
<totfact> 0.56030327E+02</totfact>
</mgrwt>
<rwgt>
<wgt id='morphing_basis_vector_1'> +2.1643199e-04 </wgt>
<wgt id='morphing_basis_vector_2'> +1.2865159e-04 </wgt>
<wgt id='morphing_basis_vector_3'> +1.7892072e-04 </wgt>
<wgt id='morphing_basis_vector_4'> +8.4046130e-05 </wgt>
<wgt id='morphing_basis_vector_5'> +1.3105943e-04 </wgt>
</rwgt>
</event>
<event>
 4      1 +5.9529000e-06 6.31427500e+02 7.81860800e-03 9.14595100e-02
        2 -1    0    0  501    0 +0.0000000000e+00 +0.0000000000e+00 +1.0606465914e+03 1.0606465914e+03 0.0000000000e+00 0.0000e+00 1.0000e+00
       -2 -1    0    0    0  501 -0.0000000000e+00 -0.0000000000e+00 -9.3975868156e+01 9.3975868156e+01 0.0000000000e+00 0.0000e+00 -1.0000e+00
      -13  1    1    2    0    0 +2.6362340731e+02 +9.4561367117e+01 +2.1686239356e+02 3.5421526050e+02 0.0000000000e+00 0.0000e+00 -1.0000e+00
       13  1    1    2    0    0 -2.6362340731e+02 -9.4561367117e+01 +7.4980832967e+02 8.0040719904e+02 0.0000000000e+00 0.0000e+00 1.0000e+00
<mgrwt>
<rscale>  0 0.63142754E+03</rscale>
<asrwt>0</asrwt>
<pdfrwt beam="1">  1        2 0.16317639E+00 0.63142754E+03</pdfrwt>
<pdfrwt beam="2">  1       -2 0.14457827E-01 0.63142754E+03</pdfrwt>
<totfact> 0.97286364E+02</totfact>
</mgrwt>
<rwgt>
<wgt id='morphing_basis_vector_1'> +1.8635922e-04 </wgt>
<wgt id='morphing_basis_vector_2'> +1.0933029e-04 </wgt>
<wgt id='morphing_basis_vector_3'> +1.5090660e-04 </wgt>
<wgt id='morphing_basis_vector_4'> +6.8165767e-05 </wgt>
<wgt id='morphing_basis_vector_5'> +1.0520824e-04 </wgt>
</rwgt>
</event>
<event>
 4      1 +5.9529000e-06 6.40522400e+02 7.81860800e-03 9.13085100e-02
        2 -1    0    0  501    0 +0.0000000000e+00 +0.0000000000e+00 +1.4587579743e+03 1.4587579743e+03 0.0000000000e+00 0.0000e+00 1.0000e+00
       -2 -1    0    0    0  501 -0.0000000000e+00 -0.0000000000e+00 -7.0311340529e+01 7.0311340529e+01 0.0000000000e+00 0.0000e+00 -1.0000e+00
      -13  1    1    2    0    0 +1.1942937525e+02 -2.0190899942e+02 +1.7373981767e+02 2.9191804323e+02 0.0000000000e+00 0.0000e+00 -1.0000e+00
       13  1    1    2    0    0 -1.1942937525e+02 +2.0190899942e+02 +1.2147068161e+03 1.2371512716e+03 0.0000000000e+00 0.0000e+00 1.0000e+00
<mgrwt>
<rscale>  0 0.64052238E+03</rscale>
<asrwt>0</asrwt>
<pdfrwt beam="1">  1        2 0.22442428E+00 0.64052238E+03</pdfrwt>
<pdfrwt beam="2">  1       -2 0.10817130E-01 0.64052238E+03</pdfrwt>
<totfact> 0.91514718E+02</totfact>
</mgrwt>
<rwgt>
<wgt id='morphing_basis_vector_1'> +1.9470539e-04 </wgt>
<wgt id='morphing_basis_vector_2'> +1.1275393e-04 </wgt>
<wgt id='morphing_basis_vector_3'> +1.5923770e-04 </wgt>
<wgt id='morphing_basis_vector_4'> +7.3631698e-05 </wgt>
<wgt id='morphing_basis_vector_5'> +1.1296593e-04 </wgt>
</rwgt>
</event>
<event>
 4      1 +5.9529000e-06 6.31581100e+02 7.81860800e-03 9.14569400e-02
        2 -1    0    0  501    0 +0.0000000000e+00 +0.0000000000e+00 +1.4966761029e+03 1.4966761029e+03 0.0000000000e+00 0.0000e+00 1.0000e+00
       -2 -1    0    0    0  501 -0.0000000000e+00 -0.0000000000e+00 -6.6630099266e+01 6.6630099266e+01 0.0000000000e+00 0.0000e+00 -1.0000e+00
      -13  1    1    2    0    0 +1.8363425909e+02 -2.5684026135e+02 +7.0033417777e+02 7.6821638977e+02 0.0000000000e+00 0.0000e+00 -1.0000e+00
       13  1    1    2    0    0 -1.8363425909e+02 +2.5684026135e+02 +7.2971182583e+02 7.9508981236e+02 0.0000000000e+00 0.0000e+00 1.0000e+00
<mgrwt>
<rscale>  0 0.63158112E+03</rscale>
<asrwt>0</asrwt>
<pdfrwt beam="1">  1        2 0.23025784E+00 0.63158112E+03</pdfrwt>
<pdfrwt beam="2">  1       -2 0.10250786E-01 0.63158112E+03</pdfrwt>
<totfact> 0.94952439E+02</totfact>
</mgrwt>
<rwgt>
<wgt id='morphing_basis_vector_1'> +1.9151178e-04 </wgt>
<wgt id='morphing_basis_vector_2'> +1.2490904e-04 </wgt>
<wgt id='morphing_basis_vector_3'> +1.5171418e-04 </wgt>
<wgt id='morphing_basis_vector_4'> +6.3903351e-05 </wgt>
<wgt id='morphing_basis_vector_5'> +1.0530714e-04 </wgt>
</rwgt>
</event>
<event>
 4      1 +5.9529000e-06 7.10540200e+02 7.81860800e-03 9.02274200e-02
        2 -1    0    0  501    0 +0.0000000000e+00 +0.0000000000e+00 +2.0755865481e+02 2.0755865481e+02 0.0000000000e+00 0.0000e+00 -1.0000e+00
       -2 -1    0    0    0  501 -0.0000000000e+00 -0.0000000000e+00 -6.0810204793e+02 6.0810204793e+02 0.0000000000e+00 0.0000e+00 1.0000e+00
      -13  1    1    2    0    0 -1.1472318911e+02 +8.2966139378e+01 -5.7431853966e+02 5.9151210926e+02 0.0000000000e+00 0.0000e+00 1.0000e+00
       13  1    1    2    0    0 +1.1472318911e+02 -8.2966139378e+01 +1.7377514654e+02 2.2414859348e+02 0.0000000000e+00 0.0000e+00 -1.0000e+00
<mgrwt>
<rscale>  0 0.71054020E+03</rscale>
<asrwt>0</asrwt>
<pdfrwt beam="1">  1        2 0.31932101E-01 0.71054020E+03</pdfrwt>
<pdfrwt beam="2">  1       -2 0.93554161E-01 0.71054020E+03</pdfrwt>
<totfact> 0.20234674E+02</totfact>
</mgrwt>
<rwgt>
<wgt id='morphing_basis_vector_1'> +2.7626844e-04 </wgt>
<wgt id='morphing_basis_vector_2'> +1.6255368e-04 </wgt>
<wgt id='morphing_basis_vector_3'> +2.3690803e-04 </wgt>
<wgt id='morphing_basis_vector_4'> +1.2030384e-04 </wgt>
<wgt id='morphing_basis_vector_5'> +1.8672477e-04 </wgt>
</rwgt>
</event>
<event>
 4      1 +5.9529000e-06 6.49596300e+02 7.81860800e-03 9.11604500e-02
        2 -1    0    0  501    0 +0.0000000000e+00 +0.0000000000e+00 +2.9007790579e+02 2.9007790579e+02 0.0000000000e+00 0.0000e+00 -1.0000e+00
       -2 -1    0    0    0  501 -0.0000000000e+00 -0.0000000000e+00 -3.6367410784e+02 3.6367410784e+02 0.0000000000e+00 0.0000e+00 1.0000e+00
      -13  1    1    2    0    0 +1.4388439833e+02 -1.2728202885e+02 -3.0037124620e+02 3.5654778150e+02 0.0000000000e+00 0.0000e+00 1.0000e+00
       13  1    1    2    0    0 -1.4388439833e+02 +1.2728202885e+02 +2.2677504415e+02 2.9720423213e+02 0.0000000000e+00 0.0000e+00 -1.0000e+00
<mgrwt>
<rscale>  0 0.64959625E+03</rscale>
<asrwt>0</asrwt>
<pdfrwt beam="1">  1        2 0.44627370E-01 0.64959625E+03</pdfrwt>
<pdfrwt beam="2">  1       -2 0.55949863E-01 0.64959625E+03</pdfrwt>
<totfact> 0.42345600E+02</totfact>
</mgrwt>
<rwgt>
<wgt id='morphing_basis_vector_1'> +2.0387585e-04 </wgt>
<wgt id='morphing_basis_vector_2'> +1.1793545e-04 </wgt>
<wgt id='morphing_basis_vector_3'> +1.6796635e-04 </wgt>
<wgt id='morphing_basis_vector_4'> +7.8909082e-05 </wgt>
<wgt id='morphing_basis_vector_5'> +1.2109511e-04 </wgt>
</rwgt>
</event>
<event>
 4      1 +5.9529000e-06 6.60556300e+02 7.81860800e-03 9.09849600e-02
        2 -1    0    0  501    0 +0.0000000000e+00 +0.0000000000e+00 +1.3026339308e+03 1.3026339308e+03 0.0000000000e+00 0.0000e+00 1.0000e+00
       -2 -1    0    0    0  501 -0.0000000000e+00 -0.0000000000e+00 -8.3740845370e+01 8.3740845370e+01 0.0000000000e+00 0.0000e+00 -1.0000e+00
      -13  1    1    2    0    0 -2.6393515946e+02 -4.8145877288e+01 +2.0516826266e+02 3.3774814567e+02 0.0000000000e+00 0.0000e+00 -1.0000e+00
       13  1    1    2    0    0 +2.6393515946e+02 +4.8145877288e+01 +1.0137248228e+03 1.0486266305e+03 0.0000000000e+00 0.0000e+00 1.0000e+00
<mgrwt>
<rscale>  0 0.66055633E+03</rscale>
<asrwt>0</asrwt>
<pdfrwt beam="1">  1        2 0.20040521E+00 0.66055633E+03</pdfrwt>
<pdfrwt beam="2">  1       -2 0.12883208E-01 0.66055633E+03</pdfrwt>
<totfact> 0.84660379E+02</totfact>
</mgrwt>
<rwgt>
<wgt id='morphing_basis_vector_1'> +2.1611666e-04 </wgt>
<wgt id='morphing_basis_vector_2'> +1.2663604e-04 </wgt>
<wgt id='morphing_basis_vector_3'> +1.7915002e-04 </wgt>
<wgt id='morphing_basis_vector_4'> +8.4978653e-05 </wgt>
<wgt id='morphing_basis_vector_5'> +1.3144296e-04 </wgt>
</rwgt>
</event>
<event>
 4      1 +5.9529000e-06 6.28855400e+02 7.81860800e-03 9.15027000e-02
        2 -1    0    0  501    0 +0.0000000000e+00 +0.0000000000e+00 +7.3511876076e+02 7.3511876076e+02 0.0000000000e+00 0.0000e+00 -1.0000e+00
       -2 -1    0    0    0  501 -0.0000000000e+00 -0.0000000000e+00 -1.3448817092e+02 1.3448817092e+02 0.0000000000e+00 0.0000e+00 1.0000e+00
      -13  1    1    2    0    0 +1.4233632910e+01 -1.4566113953e+02 -8.4514714018e+01 1.6900444006e+02 0.0000000000e+00 0.0000e+00 1.0000e+00
       13  1    1    2    0    0 -1.4233632910e+01 +1.4566113953e+02 +6.8514530386e+02 7.0060249162e+02 0.0000000000e+00 0.0000e+00 -1.0000e+00
<mgrwt>
<rscale>  0 0.62885540E+03</rscale>
<asrwt>0</asrwt>
<pdfrwt beam="1">  1        2 0.11309519E+00 0.62885540E+03</pdfrwt>
<pdfrwt beam="2">  1       -2 0.20690488E-01 0.62885540E+03</pdfrwt>
<totfact> 0.88276850E+02</totfact>
</mgrwt>
<rwgt>
<wgt id='morphing_basis_vector_1'> +1.8295585e-04 </wgt>
<wgt id='morphing_basis_vector_2'> +1.0498238e-04 </wgt>
<wgt id='morphing_basis_vector_3'> +1.4847006e-04 </wgt>
<wgt id='morphing_basis_vector_4'> +6.7620257e-05 </wgt>
<wgt id='morphing_basis_vector_5'> +1.0308992e-04 </wgt>
</rwgt>
</event>
<event>
 4      1 +5.9529000e-06 6.77164100e+02 7.81860800e-03 9.07257200e-02
        2 -1    0    0  501    0 +0.0000000000e+00 +0.0000000000e+00 +1.6993752063e+03 1.6993752063e+03 0.0000000000e+00 0.0000e+00 1.0000e+00
       -2 -1    0    0    0  501 -0.0000000000e+00 -0.0000000000e+00 -6.7458797521e+01 6.7458797521e+01 0.0000000000e+00 0.0000e+00 -1.0000e+00
      -13  1    1    2    0    0 -1.4675098126e+02 +3.0512496318e+02 +8.1375304472e+02 8.8138023092e+02 0.0000000000e+00 0.0000e+00 -1.0000e+00
       13  1    1    2    0    0 +1.4675098126e+02 -3.0512496318e+02 +8.1816336402e+02 8.8545377287e+02 0.0000000000e+00 0.0000e+00 1.0000e+00
<mgrwt>
<rscale>  0 0.67716411E+03</rscale>
<asrwt>0</asrwt>
<pdfrwt beam="1">  1        2 0.26144231E+00 0.67716411E+03</pdfrwt>
<pdfrwt beam="2">  1       -2 0.10378278E-01 0.67716411E+03</pdfrwt>
<totfact> 0.71966449E+02</totfact>
</mgrwt>
<rwgt>
<wgt id='morphing_basis_vector_1'> +2.4243868e-04 </wgt>
<wgt id='morphing_basis_vector_2'> +1.6132100e-04 </wgt>
<wgt id='morphing_basis_vector_3'> +1.9913120e-04 </wgt>
<wgt id='morphing_basis_vector_4'> +8.8148179e-05 </wgt>
<wgt id='morphing_basis_vector_5'> +1.4814642e-04 </wgt>
</rwgt>
</event>
<event>
 4      1 +5.9529000e-06 7.07106200e+02 7.81860800e-03 9.02773600e-02
        2 -1    0    0  501    0 +0.0000000000e+00 +0.0000000000e+00 +3.6582212905e+02 3.6582212905e+02 0.0000000000e+00 0.0000e+00 1.0000e+00
       -2 -1    0    0    0  501 -0.0000000000e+00 -0.0000000000e+00 -3.4169560058e+02 3.4169560058e+02 0.0000000000e+00 0.0000e+00 -1.0000e+00
      -13  1    1    2    0    0 +1.2416460156e+01 +2.5674510150e+02 -2.3082806707e+02 3.4547621072e+02 0.0000000000e+00 0.0000e+00 -1.0000e+00
       13  1    1    2    0    0 -1.2416460156e+01 -2.5674510150e+02 +2.5495459554e+02 3.6204151891e+02 0.0000000000e+00 0.0000e+00 1.0000e+00
<mgrwt>
<rscale>  0 0.70710625E+03</rscale>
<asrwt>0</asrwt>
<pdfrwt beam="1">  1        2 0.56280328E-01 0.70710625E+03</pdfrwt>
<pdfrwt beam="2">  1       -2 0.52568554E-01 0.70710625E+03</pdfrwt>
<totfact> 0.36881879E+02</totfact>
</mgrwt>
<rwgt>
<wgt id='morphing_basis_vector_1'> +2.7204817e-04 </wgt>
<wgt id='morphing_basis_vector_2'> +1.6075919e-04 </wgt>
<wgt id='morphing_basis_vector_3'> +2.3264647e-04 </wgt>
<wgt id='morphing_basis_vector_4'> +1.1726854e-04 </wgt>
<wgt id='morphing_basis_vector_5'> +1.8246933e-04 </wgt>
</rwgt>
</event>
<event>
 4      1 +5.9529000e-06 6.23435800e+02 7.81860800e-03 9.15944200e-02
        2 -1    0    0  501    0 +0.0000000000e+00 +0.0000000000e+00 +1.0506612510e+03 1.0506612510e+03 0.0000000000e+00 0.0000e+00 -1.0000e+00
       -2 -1    0    0    0  501 -0.0000000000e+00 -0.0000000000e+00 -9.2482758917e+01 9.2482758917e+01 0.0000000000e+00 0.0000e+00 1.0000e+00
      -13  1    1    2    0    0 -2.7934647992e+01 +2.1663205945e+02 +7.1306723149e+01 2.2977041260e+02 0.0000000000e+00 0.0000e+00 1.0000e+00
       13  1    1    2    0    0 +2.7934647992e+01 -2.1663205945e+02 +8.8687176893e+02 9.1337359731e+02 0.0000000000e+00 0.0000e+00 -1.0000e+00
<mgrwt>
<rscale>  0 0.62343581E+03</rscale>
<asrwt>0</asrwt>
<pdfrwt beam="1">  1        2 0.16164018E+00 0.62343581E+03</pdfrwt>
<pdfrwt beam="2">  1       -2 0.14228117E-01 0.62343581E+03</pdfrwt>
<totfact> 0.10123868E+03</totfact>
</mgrwt>
<rwgt>
<wgt id='morphing_basis_vector_1'> +1.7796017e-04 </wgt>
<wgt id='morphing_basis_vector_2'> +1.0234126e-04 </wgt>
<wgt id='morphing_basis_vector_3'> +1.4370060e-04 </wgt>
<wgt id='morphing_basis_vector_4'> +6.4725545e-05 </wgt>
<wgt id='morphing_basis_vector_5'> +9.8713552e-05 </wgt>
</rwgt>
</event>
<event>
 4      1 +5.9529000e-06 6.79140700e+02 7.81860800e-03 9.06953800e-02
        2 -1    0    0  501    0 +0.0000000000e+00 +0.0000000000e+00 +2.9493608554e+02 2.9493608554e+02 0.0000000000e+00 0.0000e+00 -1.0000e+00
       -2 -1    0    0    0  501 -0.0000000000e+00 -0.0000000000e+00 -3.9095932584e+02 3.9095932584e+02 0.0000000000e+00 0.0000e+00 1.0000e+00
      -13  1    1    2    0    0 -1.3831709050e+02 -1.2978594081e+02 -3.3247238481e+02 3.8277133464e+02 0.0000000000e+00 0.0000e+00 1.0000e+00
       13  1    1    2    0    0 +1.3831709050e+02 +1.2978594081e+02 +2.3644914451e+02 3.0312407674e+02 0.0000000000e+00 0.0000e+00 -1.0000e+00
<mgrwt>
<rscale>  0 0.67914067E+03</rscale>
<asrwt>0</asrwt>
<pdfrwt beam="1">  1        2 0.45374782E-01 0.67914067E+03</pdfrwt>
<pdfrwt beam="2">  1       -2 0.60147589E-01 0.67914067E+03</pdfrwt>
<totfact> 0.35861353E+02</totfact>
</mgrwt>
<rwgt>
<wgt id='morphing_basis_vector_1'> +2.3681098e-04 </wgt>
<wgt id='morphing_basis_vector_2'> +1.3819993e-04 </wgt>
<wgt id='morphing_basis_vector_3'> +1.9910613e-04 </wgt>
<wgt id='morphing_basis_vector_4'> +9.7381404e-05 </wgt>
<wgt id='morphing_basis_vector_5'> +1.5041152e-04 </wgt>
</rwgt>
</event>
<event>
 4      1 +5.9529000e-06 6.95953200e+02 7.81860800e-03 9.04416200e-02
        2 -1    0    0  501    0 +0.0000000000e+00 +0.0000000000e+00 +4.9077789833e+02 4.9077789833e+02 0.0000000000e+00 0.0000e+00 -1.0000e+00
       -2 -1    0    0    0  501 -0.0000000000e+00 -0.0000000000e+00 -2.4672611155e+02 2.4672611155e+02 0.0000000000e+00 0.0000e+00 1.0000e+00
      -13  1    1    2    0    0 +7.9829875444e+00 +1.0245391472e+02 -2.3027918127e+02 2.5216866192e+02 0.0000000000e+00 0.0000e+00 1.0000e+00
       13  1    1    2    0    0 -7.9829875444e+00 -1.0245391472e+02 +4.7433096804e+02 4.8533534795e+02 0.0000000000e+00 0.0000e+00 -1.0000e+00
<mgrwt>
<rscale>  0 0.69595322E+03</rscale>
<asrwt>0</asrwt>
<pdfrwt beam="1">  1        2 0.75504292E-01 0.69595322E+03</pdfrwt>
<pdfrwt beam="2">  1       -2 0.37957863E-01 0.69595322E+03</pdfrwt>
<totfact> 0.49225051E+02</totfact>
</mgrwt>
<rwgt>
<wgt id='morphing_basis_vector_1'> +2.5729419e-04 </wgt>
<wgt id='morphing_basis_vector_2'> +1.5071347e-04 </wgt>
<wgt id='morphing_basis_vector_3'> +2.1870051e-04 </wgt>
<wgt id='morphing_basis_vector_4'> +1.0926269e-04 </wgt>
<wgt id='morphing_basis_vector_5'> +1.6916344e-04 </wgt>
</rwgt>
</event>
<event>
 4      1 +5.9529000e-06 6.55592000e+02 7.81860800e-03 9.10640000e-02
        2 -1    0    0  501    0 +0.0000000000e+00 +0.0000000000e+00 +9.7757706901e+02 9.7757706901e+02 0.0000000000e+00 0.0000e+00 -1.0000e+00
       -2 -1    0    0    0  501 -0.0000000000e+00 -0.0000000000e+00 -1.0991482859e+02 1.0991482859e+02 0.0000000000e+00 0.0000e+00 1.0000e+00
      -13  1    1    2    0    0 -7.7181173930e+01 -2.3918874069e+02 +8.4766251106e+01 2.6524235070e+02 0.0000000000e+00 0.0000e+00 1.0000e+00
       13  1    1    2    0    0 +7.7181173930e+01 +2.3918874069e+02 +7.8289598932e+02 8.2224954689e+02 0.0000000000e+00 0.0000e+00 -1.0000e+00
<mgrwt>
<rscale>  0 0.65559199E+03</rscale>
<asrwt>0</asrwt>
<pdfrwt beam="1">  1        2 0.15039647E+00 0.65559199E+03</pdfrwt>
<pdfrwt beam="2">  1       -2 0.16909974E-01 0.65559199E+03</pdfrwt>
<totfact> 0.84760377E+02</totfact>
</mgrwt>
<rwgt>
<wgt id='morphing_basis_vector_1'> +2.1053596e-04 </wgt>
<wgt id='morphing_basis_vector_2'> +1.2274235e-04 </wgt>
<wgt id='morphing_basis_vector_3'> +1.7401816e-04 </wgt>
<wgt id='morphing_basis_vector_4'> +8.2159211e-05 </wgt>
<wgt id='morphing_basis_vector_5'> +1.2668182e-04 </wgt>
</rwgt>
</event>
<event>
 4      1 +5.9529000e-06 6.45487100e+02 7.81860800e-03 9.12271800e-02
        2 -1    0    0  501    0 +0.0000000000e+00 +0.0000000000e+00 +1.0604531558e+02 1.0604531558e+02 0.0000000000e+00 0.0000e+00 1.0000e+00
       -2 -1    0    0    0  501 -0.0000000000e+00 -0.0000000000e+00 -9.8225378784e+02 9.8225378784e+02 0.0000000000e+00 0.0000e+00 -1.0000e+00
      -13  1    1    2    0    0 +1.5176595011e+02 -1.2960398428e+02 -8.6574455596e+02 8.8845018573e+02 0.0000000000e+00 0.0000e+00 -1.0000e+00
       13  1    1    2    0    0 -1.5176595011e+02 +1.2960398428e+02 -1.0463916300e+01 1.9984891768e+02 0.0000000000e+00 0.0000e+00 1.0000e+00
<mgrwt>
<rscale>  0 0.64548714E+03</rscale>
<asrwt>0</asrwt>
<pdfrwt beam="1">  1        2 0.16314664E-01 0.64548714E+03</pdfrwt>
<pdfrwt beam="2">  1       -2 0.15111597E+00 0.64548714E+03</pdfrwt>
<totfact> 0.13035469E+02</totfact>
</mgrwt>
<rwgt>
<wgt id='morphing_basis_vector_1'> +1.9961954e-04 </wgt>
<wgt id='morphing_basis_vector_2'> +1.1537489e-04 </wgt>
<wgt id='morphing_basis_vector_3'> +1.6395866e-04 </wgt>
<wgt id='morphing_basis_vector_4'> +7.6541671e-05 </wgt>
<wgt id='morphing_basis_vector_5'> +1.1736514e-04 </wgt>
</rwgt>
</event>
<event>
 4      1 +5.9529000e-06 7.41788100e+02 7.81860800e-03 8.97861100e-02
        2 -1    0    0  501    0 +0.0000000000e+00 +0.0000000000e+00 +1.6878188624e+02 1.6878188624e+02 0.0000000000e+00 0.0000e+00 -1.0000e+00
       -2 -1    0    0    0  501 -0.0000000000e+00 -0.0000000000e+00 -8.1503050075e+02 8.1503050075e+02 0.0000000000e+00 0.0000e+00 1.0000e+00
      -13  1    1    2    0    0 +2.5576650960e+02 -1.1771584461e+02 -6.4332717291e+02 7.0224168127e+02 0.0000000000e+00 0.0000e+00 1.0000e+00
       13  1    1    2    0    0 -2.5576650960e+02 +1.1771584461e+02 -2.9214415967e+00 2.8157070573e+02 0.0000000000e+00 0.0000e+00 -1.0000e+00
<mgrwt>
<rscale>  0 0.74178807E+03</rscale>
<asrwt>0</asrwt>
<pdfrwt beam="1">  1        2 0.25966444E-01 0.74178807E+03</pdfrwt>
<pdfrwt beam="2">  1       -2 0.12538931E+00 0.74178807E+03</pdfrwt>
<totfact> 0.12392878E+02</totfact>
</mgrwt>
<rwgt>
<wgt id='morphing_basis_vector_1'> +3.2113265e-04 </wgt>
<wgt id='morphing_basis_vector_2'> +1.9190973e-04 </wgt>
<wgt id='morphing_basis_vector_3'> +2.8007053e-04 </wgt>
<wgt id='morphing_basis_vector_4'> +1.4608296e-04 </wgt>
<wgt id='morphing_basis_vector_5'> +2.2863038e-04 </wgt>
</rwgt>
</event>
<event>
 4      1 +5.9529000e-06 6.46085000e+02 7.81860800e-03 9.12174400e-02
        2 -1    0    0  501    0 +0.0000000000e+00 +0.0000000000e+00 +1.0427379612e+03 1.0427379612e+03 0.0000000000e+00 0.0000e+00 1.0000e+00
       -2 -1    0    0    0  501 -0.0000000000e+00 -0.0000000000e+00 -1.0007926466e+02 1.0007926466e+02 0.0000000000e+00 0.0000e+00 -1.0000e+00
      -13  1    1    2    0    0 +3.1648421143e+02 +3.2666757235e+01 +5.7024301586e+02 6.5299806297e+02 0.0000000000e+00 0.0000e+00 1.0000e+00
       13  1    1    2    0    0 -3.1648421143e+02 -3.2666757235e+01 +3.7241568073e+02 4.8981916292e+02 0.0000000000e+00 0.0000e+00 -1.0000e+00
<mgrwt>
<rscale>  0 0.64608497E+03</rscale>
<asrwt>0</asrwt>
<pdfrwt beam="1">  1        2 0.16042122E+00 0.64608497E+03</pdfrwt>
<pdfrwt beam="2">  1       -2 0.15396811E-01 0.64608497E+03</pdfrwt>
<totfact> 0.90064865E+02</totfact>
</mgrwt>
<rwgt>
<wgt id='morphing_basis_vector_1'> +2.1276470e-04 </wgt>
<wgt id='morphing_basis_vector_2'> +1.5450112e-04 </wgt>
<wgt id='morphing_basis_vector_3'> +1.6682574e-04 </wgt>
<wgt id='morphing_basis_vector_4'> +6.5481391e-05 </wgt>
<wgt id='morphing_basis_vector_5'> +1.1777076e-04 </wgt>
</rwgt>
</event>
<event>
 4      1 +5.9529000e-06 7.30672400e+02 7.81860800e-03 8.99404100e-02
        2 -1    0    0  501    0 +0.0000000000e+00 +0.0000000000e+00 +1.4277896026e+02 1.4277896026e+02 0.0000000000e+00 0.0000e+00 -1.0000e+00
       -2 -1    0    0    0  501 -0.0000000000e+00 -0.0000000000e+00 -9.3480548397e+02 9.3480548397e+02 0.0000000000e+00 0.0000e+00 1.0000e+00
      -13  1    1    2    0    0 +3.5546060963e+02 +4.6386727544e+01 -4.9994719688e+02 6.1518385313e+02 0.0000000000e+00 0.0000e+00 1.0000e+00
       13  1    1    2    0    0 -3.5546060963e+02 -4.6386727544e+01 -2.9207932682e+02 4.6240059110e+02 0.0000000000e+00 0.0000e+00 -1.0000e+00
<mgrwt>
<rscale>  0 0.73067244E+03</rscale>
<asrwt>0</asrwt>
<pdfrwt beam="1">  1        2 0.21965994E-01 0.73067244E+03</pdfrwt>
<pdfrwt beam="2">  1       -2 0.14381623E+00 0.73067244E+03</pdfrwt>
<totfact> 0.10417454E+02</totfact>
</mgrwt>
<rwgt>
<wgt id='morphing_basis_vector_1'> +3.0933607e-04 </wgt>
<wgt id='morphing_basis_vector_2'> +1.9571942e-04 </wgt>
<wgt id='morphing_basis_vector_3'> +2.6613189e-04 </wgt>
<wgt id='morphing_basis_vector_4'> +1.3113910e-04 </wgt>
<wgt id='morphing_basis_vector_5'> +2.1285717e-04 </wgt>
</rwgt>
</event>
<event>
 4      1 +5.9529000e-06 6.42992700e+02 7.81860800e-03 9.12679400e-02
        2 -1    0    0  501    0 +0.0000000000e+00 +0.0000000000e+00 +4.3441266756e+02 4.3441266756e+02 0.0000000000e+00 0.0000e+00 -1.0000e+00
       -2 -1    0    0    0  501 -0.0000000000e+00 -0.0000000000e+00 -2.3793025368e+02 2.3793025368e+02 0.0000000000e+00 0.0000e+00 1.0000e+00
      -13  1    1    2    0    0 +3.6030793801e+01 +7.1947498909e+01 -2.2723077706e+02 2.4105701970e+02 0.0000000000e+00 0.0000e+00 1.0000e+00
       13  1    1    2    0    0 -3.6030793801e+01 -7.1947498909e+01 +4.2371319094e+02 4.3128590155e+02 0.0000000000e+00 0.0000e+00 -1.0000e+00
<mgrwt>
<rscale>  0 0.64299274E+03</rscale>
<asrwt>0</asrwt>
<pdfrwt beam="1">  1        2 0.66832718E-01 0.64299274E+03</pdfrwt>
<pdfrwt beam="2">  1       -2 0.36604654E-01 0.64299274E+03</pdfrwt>
<totfact> 0.60487101E+02</totfact>
</mgrwt>
<rwgt>
<wgt id='morphing_basis_vector_1'> +1.9695210e-04 </wgt>
<wgt id='morphing_basis_vector_2'> +1.1347589e-04 </wgt>
<wgt id='morphing_basis_vector_3'> +1.6154183e-04 </wgt>
<wgt id='morphing_basis_vector_4'> +7.5236900e-05 </wgt>
<wgt id='morphing_basis_vector_5'> +1.1514185e-04 </wgt>
</rwgt>
</event>
<event>
 4      1 +5.9529000e-06 6.79004400e+02 7.81860800e-03 9.06974700e-02
        2 -1    0    0  501    0 +0.0000000000e+00 +0.0000000000e+00 +1.7887641184e+03 1.7887641184e+03 0.0000000000e+00 0.0000e+00 -1.0000e+00
       -2 -1    0    0    0  501 -0.0000000000e+00 -0.0000000000e+00 -6.4436517201e+01 6.4436517201e+01 0.0000000000e+00 0.0000e+00 1.0000e+00
      -13  1    1    2    0    0 +2.4162067600e+02 +2.2505403376e+02 +6.4670772425e+02 7.2612722700e+02 0.0000000000e+00 0.0000e+00 1.0000e+00
       13  1    1    2    0    0 -2.4162067600e+02 -2.2505403376e+02 +1.0776198769e+03 1.1270734086e+03 0.0000000000e+00 0.0000e+00 -1.0000e+00
<mgrwt>
<rscale>  0 0.67900436E+03</rscale>
<asrwt>0</asrwt>
<pdfrwt beam="1">  1        2 0.27519444E+00 0.67900436E+03</pdfrwt>
<pdfrwt beam="2">  1       -2 0.99133117E-02 0.67900436E+03</pdfrwt>
<totfact> 0.69123822E+02</totfact>
</mgrwt>
<rwgt>
<wgt id='morphing_basis_vector_1'> +2.3994179e-04 </wgt>
<wgt id='morphing_basis_vector_2'> +1.4826150e-04 </wgt>
<wgt id='morphing_basis_vector_3'> +1.9989752e-04 </wgt>
<wgt id='morphing_basis_vector_4'> +9.4001490e-05 </wgt>
<wgt id='morphing_basis_vector_5'> +1.5019688e-04 </wgt>
</rwgt>
</event>
<event>
 4      1 +5.9529000e-06 6.60952400e+02 7.81860800e-03 9.09786900e-02
        2 -1    0    0  501    0 +0.0000000000e+00 +0.0000000000e+00 +1.6962981995e+02 1.6962981995e+02 0.0000000000e+00 0.0000e+00 -1.0000e+00
       -2 -1    0    0    0  501 -0.0000000000e+00 -0.0000000000e+00 -6.4384028993e+02 6.4384028993e+02 0.0000000000e+00 0.0000e+00 1.0000e+00
      -13  1    1    2    0    0 +9.4174260377e+01 -2.4991755110e+02 -4.7666627327e+02 5.4638659366e+02 0.0000000000e+00 0.0000e+00 1.0000e+00
       13  1    1    2    0    0 -9.4174260377e+01 +2.4991755110e+02 +2.4558032930e+00 2.6708351621e+02 0.0000000000e+00 0.0000e+00 -1.0000e+00
<mgrwt>
<rscale>  0 0.66095238E+03</rscale>
<asrwt>0</asrwt>
<pdfrwt beam="1">  1        2 0.26096896E-01 0.66095238E+03</pdfrwt>
<pdfrwt beam="2">  1       -2 0.99052352E-01 0.66095238E+03</pdfrwt>
<totfact> 0.22384974E+02</totfact>
</mgrwt>
<rwgt>
<wgt id='morphing_basis_vector_1'> +2.1653346e-04 </wgt>
<wgt id='morphing_basis_vector_2'> +1.2684737e-04 </wgt>
<wgt id='morphing_basis_vector_3'> +1.7955696e-04 </wgt>
<wgt id='morphing_basis_vector_4'> +8.5238245e-05 </wgt>
<wgt id='morphing_basis_vector_5'> +1.3182864e-04 </wgt>
</rwgt>
</event>
<event>
 4      1 +5.9529000e-06 6.27516200e+02 7.81860800e-03 9.15252700e-02
        2 -1    0    0  501    0 +0.0000000000e+00 +0.0000000000e+00 +1.6779152386e+02 1.6779152386e+02 0.0000000000e+00 0.0000e+00 1.0000e+00
       -2 -1    0    0    0  501 -0.0000000000e+00 -0.0000000000e+00 -5.8670520008e+02 5.8670520008e+02 0.0000000000e+00 0.0000e+00 -1.0000e+00
      -13  1    1    2    0    0 +1.5624927109e+01 -1.0764297644e+02 -5.6331071061e+02 5.7371604946e+02 0.0000000000e+00 0.0000e+00 -1.0000e+00
       13  1    1    2    0    0 -1.5624927109e+01 +1.0764297644e+02 +1.4439703438e+02 1.8078067447e+02 0.0000000000e+00 0.0000e+00 1.0000e+00
<mgrwt>
<rscale>  0 0.62751625E+03</rscale>
<asrwt>0</asrwt>
<pdfrwt beam="1">  1        2 0.25814081E-01 0.62751625E+03</pdfrwt>
<pdfrwt beam="2">  1       -2 0.90262338E-01 0.62751625E+03</pdfrwt>
<totfact> 0.28257419E+02</totfact>
</mgrwt>
<rwgt>
<wgt id='morphing_basis_vector_1'> +1.8165176e-04 </wgt>
<wgt id='morphing_basis_vector_2'> +1.0414092e-04 </wgt>
<wgt id='morphing_basis_vector_3'> +1.4727365e-04 </wgt>
<wgt id='morphing_basis_vector_4'> +6.6946932e-05 </wgt>
<wgt id='morphing_basis_vector_5'> +1.0199638e-04 </wgt>
</rwgt>
</event>
<event>
 4      1 +5.9529000e-06 6.44295300e+02 7.81860800e-03 9.12466300e-02
        2 -1    0    0  501    0 +0.0000000000e+00 +0.0000000000e+00 +2.6242870269e+02 2.6242870269e+02 0.0000000000e+00 0.0000e+00 -1.0000e+00
       -2 -1    0    0    0  501 -0.0000000000e+00 -0.0000000000e+00 -3.9545633753e+02 3.9545633753e+02 0.0000000000e+00 0.0000e+00 1.0000e+00
      -13  1    1    2    0    0 +2.5239892635e+02 -1.8599892563e+01 -2.7003658058e+02 3.7009583742e+02 0.0000000000e+00 0.0000e+00 1.0000e+00
       13  1    1    2    0    0 -2.5239892635e+02 +1.8599892563e+01 +1.3700894574e+02 2.8778920279e+02 0.0000000000e+00 0.0000e+00 -1.0000e+00
<mgrwt>
<rscale>  0 0.64429525E+03</rscale>
<asrwt>0</asrwt>
<pdfrwt beam="1">  1        2 0.40373647E-01 0.64429525E+03</pdfrwt>
<pdfrwt beam="2">  1       -2 0.60839436E-01 0.64429525E+03</pdfrwt>
<totfact> 0.40008966E+02</totfact>
</mgrwt>
<rwgt>
<wgt id='morphing_basis_vector_1'> +1.9869938e-04 </wgt>
<wgt id='morphing_basis_vector_2'> +1.1557187e-04 </wgt>
<wgt id='morphing_basis_vector_3'> +1.6286338e-04 </wgt>
<wgt id='morphing_basis_vector_4'> +7.5592400e-05 </wgt>
<wgt id='morphing_basis_vector_5'> +1.1629553e-04 </wgt>
</rwgt>
</event>
<event>
 4      1 +5.9529000e-06 6.94459100e+02 7.81860800e-03 9.04638700e-02
        2 -1    0    0  501    0 +0.0000000000e+00 +0.0000000000e+00 +1.5213420945e+03 1.5213420945e+03 0.0000000000e+00 0.0000e+00 -1.0000e+00
       -2 -1    0    0    0  501 -0.0000000000e+00 -0.0000000000e+00 -7.9251304290e+01 7.9251304290e+01 0.0000000000e+00 0.0000e+00 1.0000e+00
      -13  1    1    2    0    0 +1.2856845228e+02 +3.0656352385e+02 +4.8990536349e+02 5.9204586499e+02 0.0000000000e+00 0.0000e+00 1.0000e+00
       13  1    1    2    0    0 -1.2856845228e+02 -3.0656352385e+02 +9.5218542674e+02 1.0085475338e+03 0.0000000000e+00 0.0000e+00 -1.0000e+00
<mgrwt>
<rscale>  0 0.69445906E+03</rscale>
<asrwt>0</asrwt>
<pdfrwt beam="1">  1        2 0.23405261E+00 0.69445906E+03</pdfrwt>
<pdfrwt beam="2">  1       -2 0.12192510E-01 0.69445906E+03</pdfrwt>
<totfact> 0.69761135E+02</totfact>
</mgrwt>
<rwgt>
<wgt id='morphing_basis_vector_1'> +2.5829660e-04 </wgt>
<wgt id='morphing_basis_vector_2'> +1.5843987e-04 </wgt>
<wgt id='morphing_basis_vector_3'> +2.1785868e-04 </wgt>
<wgt id='morphing_basis_vector_4'> +1.0517970e-04 </wgt>
<wgt id='morphing_basis_vector_5'> +1.6735956e-04 </wgt>
</rwgt>
</event>
<event>
 4      1 +5.9529000e-06 6.59724900e+02 7.81860800e-03 9.09981500e-02
        2 -1    0    0  501    0 +0.0000000000e+00 +0.0000000000e+00 +1.1457974741e+03 1.1457974741e+03 0.0000000000e+00 0.0000e+00 -1.0000e+00
       -2 -1    0    0    0  501 -0.0000000000e+00 -0.0000000000e+00 -9.4963745955e+01 9.4963745955e+01 0.0000000000e+00 0.0000e+00 1.0000e+00
      -13  1    1    2    0    0 +7.8482987010e+01 +2.5585620412e+02 +1.6273790378e+02 3.1321813767e+02 0.0000000000e+00 0.0000e+00 1.0000e+00
       13  1    1    2    0    0 -7.8482987010e+01 -2.5585620412e+02 +8.8809582438e+02 9.2754308240e+02 0.0000000000e+00 0.0000e+00 -1.0000e+00
<mgrwt>
<rscale>  0 0.65972485E+03</rscale>
<asrwt>0</asrwt>
<pdfrwt beam="1">  1        2 0.17627653E+00 0.65972485E+03</pdfrwt>
<pdfrwt beam="2">  1       -2 0.14609808E-01 0.65972485E+03</pdfrwt>
<totfact> 0.85097601E+02</totfact>
</mgrwt>
<rwgt>
<wgt id='morphing_basis_vector_1'> +2.1519841e-04 </wgt>
<wgt id='morphing_basis_vector_2'> +1.2605333e-04 </wgt>
<wgt id='morphing_basis_vector_3'> +1.7828758e-04 </wgt>
<wgt id='morphing_basis_vector_4'> +8.4478512e-05 </wgt>
<wgt id='morphing_basis_vector_5'> +1.3063655e-04 </wgt>
</rwgt>
</event>
<event>
 4      1 +5.9529000e-06 6.55717000e+02 7.81860800e-03 9.10620000e-02
        2 -1    0    0  501    0 +0.0000000000e+00 +0.0000000000e+00 +1.4644850719e+03 1.4644850719e+03 0.0000000000e+00 0.0000e+00 1.0000e+00
       -2 -1    0    0    0  501 -0.0000000000e+00 -0.0000000000e+00 -7.3398629631e+01 7.3398629631e+01 0.0000000000e+00 0.0000e+00 -1.0000e+00
      -13  1    1    2    0    0 -1.2648788773e+02 -2.7507247557e+02 +4.0048458095e+02 5.0204775882e+02 0.0000000000e+00 0.0000e+00 -1.0000e+00
       13  1    1    2    0    0 +1.2648788773e+02 +2.7507247557e+02 +9.9060186130e+02 1.0358359427e+03 0.0000000000e+00 0.0000e+00 1.0000e+00
<mgrwt>
<rscale>  0 0.65571700E+03</rscale>
<asrwt>0</asrwt>
<pdfrwt beam="1">  1        2 0.22530537E+00 0.65571700E+03</pdfrwt>
<pdfrwt beam="2">  1       -2 0.11292098E-01 0.65571700E+03</pdfrwt>
<totfact> 0.84839086E+02</totfact>
</mgrwt>
<rwgt>
<wgt id='morphing_basis_vector_1'> +2.1184772e-04 </wgt>
<wgt id='morphing_basis_vector_2'> +1.2646416e-04 </wgt>
<wgt id='morphing_basis_vector_3'> +1.7439707e-04 </wgt>
<wgt id='morphing_basis_vector_4'> +8.1130852e-05 </wgt>
<wgt id='morphing_basis_vector_5'> +1.2678421e-04 </wgt>
</rwgt>
</event>
<event>
 4      1 +5.9529000e-06 6.28599000e+02 7.81860800e-03 9.15070200e-02
        2 -1    0    0  501    0 +0.0000000000e+00 +0.0000000000e+00 +4.9825988080e+02 4.9825988080e+02 0.0000000000e+00 0.0000e+00 1.0000e+00
       -2 -1    0    0    0  501 -0.0000000000e+00 -0.0000000000e+00 -1.9825833627e+02 1.9825833627e+02 0.0000000000e+00 0.0000e+00 -1.0000e+00
      -13  1    1    2    0    0 -2.7115898759e+02 +1.4099980590e+02 +6.8757058806e+01 3.1326614076e+02 0.0000000000e+00 0.0000e+00 -1.0000e+00
       13  1    1    2    0    0 +2.7115898759e+02 -1.4099980590e+02 +2.3124448572e+02 3.8325207630e+02 0.0000000000e+00 0.0000e+00 1.0000e+00
<mgrwt>
<rscale>  0 0.62859900E+03</rscale>
<asrwt>0</asrwt>
<pdfrwt beam="1">  1        2 0.76655366E-01 0.62859900E+03</pdfrwt>
<pdfrwt beam="2">  1       -2 0.30501283E-01 0.62859900E+03</pdfrwt>
<totfact> 0.71832444E+02</totfact>
</mgrwt>
<rwgt>
<wgt id='morphing_basis_vector_1'> +1.8525218e-04 </wgt>
<wgt id='morphing_basis_vector_2'> +1.1270545e-04 </wgt>
<wgt id='morphing_basis_vector_3'> +1.4855403e-04 </wgt>
<wgt id='morphing_basis_vector_4'> +6.5303104e-05 </wgt>
<wgt id='morphing_basis_vector_5'> +1.0286779e-04 </wgt>
</rwgt>
</event>
<event>
 4      1 +5.9529000e-06 6.53880900e+02 7.81860800e-03 9.10914200e-02
        2 -1    0    0  501    0 +0.0000000000e+00 +0.0000000000e+00 +2.9396486974e+02 2.9396486974e+02 0.0000000000e+00 0.0000e+00 1.0000e+00
       -2 -1    0    0    0  501 -0.0000000000e+00 -0.0000000000e+00 -3.6361507063e+02 3.6361507063e+02 0.0000000000e+00 0.0000e+00 -1.0000e+00
      -13  1    1    2    0    0 -1.4876329890e+02 -2.5043924321e+01 -3.2652171581e+02 3.5968618008e+02 0.0000000000e+00 0.0000e+00 -1.0000e+00
       13  1    1    2    0    0 +1.4876329890e+02 +2.5043924321e+01 +2.5687151492e+02 2.9789376030e+02 0.0000000000e+00 0.0000e+00 1.0000e+00
<mgrwt>
<rscale>  0 0.65388090E+03</rscale>
<asrwt>0</asrwt>
<pdfrwt beam="1">  1        2 0.45225365E-01 0.65388090E+03</pdfrwt>
<pdfrwt beam="2">  1       -2 0.55940780E-01 0.65388090E+03</pdfrwt>
<totfact> 0.41724755E+02</totfact>
</mgrwt>
<rwgt>
<wgt id='morphing_basis_vector_1'> +2.0835168e-04 </wgt>
<wgt id='morphing_basis_vector_2'> +1.2053282e-04 </wgt>
<wgt id='morphing_basis_vector_3'> +1.7221748e-04 </wgt>
<wgt id='morphing_basis_vector_4'> +8.1470588e-05 </wgt>
<wgt id='morphing_basis_vector_5'> +1.2507293e-04 </wgt>
</rwgt>
</event>
<event>
 4      1 +5.9529000e-06 6.72379100e+02 7.81860800e-03 9.07996100e-02
        2 -1    0    0  501    0 +0.0000000000e+00 +0.0000000000e+00 +9.5096727786e+02 9.5096727786e+02 0.0000000000e+00 0.0000e+00 -1.0000e+00
       -2 -1    0    0    0  501 -0.0000000000e+00 -0.0000000000e+00 -1.1885101851e+02 1.1885101851e+02 0.0000000000e+00 0.0000e+00 1.0000e+00
      -13  1    1    2    0    0 +2.1034643806e+02 -1.4102938150e+02 +6.4255383040e+01 2.6127316108e+02 0.0000000000e+00 0.0000e+00 1.0000e+00
       13  1    1    2    0    0 -2.1034643806e+02 +1.4102938150e+02 +7.6786087631e+02 8.0854513530e+02 0.0000000000e+00 0.0000e+00 -1.0000e+00
<mgrwt>
<rscale>  0 0.67237915E+03</rscale>
<asrwt>0</asrwt>
<pdfrwt beam="1">  1        2 0.14630265E+00 0.67237915E+03</pdfrwt>
<pdfrwt beam="2">  1       -2 0.18284773E-01 0.67237915E+03</pdfrwt>
<totfact> 0.77434225E+02</totfact>
</mgrwt>
<rwgt>
<wgt id='morphing_basis_vector_1'> +2.2921393e-04 </wgt>
<wgt id='morphing_basis_vector_2'> +1.3422820e-04 </wgt>
<wgt id='morphing_basis_vector_3'> +1.9169068e-04 </wgt>
<wgt id='morphing_basis_vector_4'> +9.2618604e-05 </wgt>
<wgt id='morphing_basis_vector_5'> +1.4329816e-04 </wgt>
</rwgt>
</event>
<event>
 4      1 +5.9529000e-06 6.42189900e+02 7.81860800e-03 9.12811000e-02
        2 -1    0    0  501    0 +0.0000000000e+00 +0.0000000000e+00 +1.3666888654e+02 1.3666888654e+02 0.0000000000e+00 0.0000e+00 -1.0000e+00
       -2 -1    0    0    0  501 -0.0000000000e+00 -0.0000000000e+00 -7.5439243808e+02 7.5439243808e+02 0.0000000000e+00 0.0000e+00 1.0000e+00
      -13  1    1    2    0    0 +2.6233715824e+02 +1.4638292448e+01 -5.6496230785e+02 6.2307100197e+02 0.0000000000e+00 0.0000e+00 1.0000e+00
       13  1    1    2    0    0 -2.6233715824e+02 -1.4638292448e+01 -5.2761243699e+01 2.6799032266e+02 0.0000000000e+00 0.0000e+00 -1.0000e+00
<mgrwt>
<rscale>  0 0.64218992E+03</rscale>
<asrwt>0</asrwt>
<pdfrwt beam="1">  1        2 0.21025983E-01 0.64218992E+03</pdfrwt>
<pdfrwt beam="2">  1       -2 0.11606037E+00 0.64218992E+03</pdfrwt>
<totfact> 0.19531069E+02</totfact>
</mgrwt>
<rwgt>
<wgt id='morphing_basis_vector_1'> +1.9667033e-04 </wgt>
<wgt id='morphing_basis_vector_2'> +1.1463522e-04 </wgt>
<wgt id='morphing_basis_vector_3'> +1.6086711e-04 </wgt>
<wgt id='morphing_basis_vector_4'> +7.4307300e-05 </wgt>
<wgt id='morphing_basis_vector_5'> +1.1442730e-04 </wgt>
</rwgt>
</event>
<event>
 4      1 +5.9529000e-06 6.44945700e+02 7.81860800e-03 9.12360100e-02
        2 -1    0    0  501    0 +0.0000000000e+00 +0.0000000000e+00 +2.9455197615e+02 2.9455197615e+02 0.0000000000e+00 0.0000e+00 1.0000e+00
       -2 -1    0    0    0  501 -0.0000000000e+00 -0.0000000000e+00 -3.5304036332e+02 3.5304036332e+02 0.0000000000e+00 0.0000e+00 -1.0000e+00
      -13  1    1    2    0    0 +2.7211264388e+02 -1.6996106443e+02 -6.1884240289e+01 3.2674411024e+02 0.0000000000e+00 0.0000e+00 1.0000e+00
       13  1    1    2    0    0 -2.7211264388e+02 +1.6996106443e+02 +3.3958531204e+00 3.2084822923e+02 0.0000000000e+00 0.0000e+00 -1.0000e+00
<mgrwt>
<rscale>  0 0.64494569E+03</rscale>
<asrwt>0</asrwt>
<pdfrwt beam="1">  1        2 0.45315689E-01 0.64494569E+03</pdfrwt>
<pdfrwt beam="2">  1       -2 0.54313902E-01 0.64494569E+03</pdfrwt>
<totfact> 0.44174723E+02</totfact>
</mgrwt>
<rwgt>
<wgt id='morphing_basis_vector_1'> +2.0366585e-04 </wgt>
<wgt id='morphing_basis_vector_2'> +1.2927528e-04 </wgt>
<wgt id='morphing_basis_vector_3'> +1.6425925e-04 </wgt>
<wgt id='morphing_basis_vector_4'> +7.2061286e-05 </wgt>
<wgt id='morphing_basis_vector_5'> +1.1683299e-04 </wgt>
</rwgt>
</event>
<event>
 4      1 +5.9529000e-06 6.34022700e+02 7.81860800e-03 9.14161500e-02
        2 -1    0    0  501    0 +0.0000000000e+00 +0.0000000000e+00 +3.5870688292e+02 3.5870688292e+02 0.0000000000e+00 0.0000e+00 -1.0000e+00
       -2 -1    0    0    0  501 -0.0000000000e+00 -0.0000000000e+00 -2.8016239714e+02 2.8016239714e+02 0.0000000000e+00 0.0000e+00 1.0000e+00
      -13  1    1    2    0    0 +7.6674402559e+01 +7.2308764712e+01 -2.6199259293e+02 2.8239624681e+02 0.0000000000e+00 0.0000e+00 1.0000e+00
       13  1    1    2    0    0 -7.6674402559e+01 -7.2308764712e+01 +3.4053707870e+02 3.5647303325e+02 0.0000000000e+00 0.0000e+00 -1.0000e+00
<mgrwt>
<rscale>  0 0.63402265E+03</rscale>
<asrwt>0</asrwt>
<pdfrwt beam="1">  1        2 0.55185675E-01 0.63402265E+03</pdfrwt>
<pdfrwt beam="2">  1       -2 0.43101907E-01 0.63402265E+03</pdfrwt>
<totfact> 0.55448556E+02</totfact>
</mgrwt>
<rwgt>
<wgt id='morphing_basis_vector_1'> +1.8796460e-04 </wgt>
<wgt id='morphing_basis_vector_2'> +1.0799003e-04 </wgt>
<wgt id='morphing_basis_vector_3'> +1.5314652e-04 </wgt>
<wgt id='morphing_basis_vector_4'> +7.0345648e-05 </wgt>
<wgt id='morphing_basis_vector_5'> +1.0738694e-04 </wgt>
</rwgt>
</event>
<event>
 4      1 +5.9529000e-06 6.73556000e+02 7.81860800e-03 9.07813700e-02
        2 -1    0    0  501    0 +0.0000000000e+00 +0.0000000000e+00 +3.0746964004e+02 3.0746964004e+02 0.0000000000e+00 0.0000e+00 1.0000e+00
       -2 -1    0    0    0  501 -0.0000000000e+00 -0.0000000000e+00 -3.6888008213e+02 3.6888008213e+02 0.0000000000e+00 0.0000e+00 -1.0000e+00
      -13  1    1    2    0    0 +1.4751214062e+02 +2.3498143671e+02 +1.6098791306e+02 3.2076972329e+02 0.0000000000e+00 0.0000e+00 1.0000e+00
       13  1    1    2    0    0 -1.4751214062e+02 -2.3498143671e+02 -2.2239835516e+02 3.5557999888e+02 0.0000000000e+00 0.0000e+00 -1.0000e+00
<mgrwt>
<rscale>  0 0.67355601E+03</rscale>
<asrwt>0</asrwt>
<pdfrwt beam="1">  1        2 0.47303022E-01 0.67355601E+03</pdfrwt>
<pdfrwt beam="2">  1       -2 0.56750781E-01 0.67355601E+03</pdfrwt>
<totfact> 0.38518426E+02</totfact>
</mgrwt>
<rwgt>
<wgt id='morphing_basis_vector_1'> +2.7858070e-04 </wgt>
<wgt id='morphing_basis_vector_2'> +2.8330609e-04 </wgt>
<wgt id='morphing_basis_vector_3'> +2.0595987e-04 </wgt>
<wgt id='morphing_basis_vector_4'> +4.6111374e-05 </wgt>
<wgt id='morphing_basis_vector_5'> +1.4359306e-04 </wgt>
</rwgt>
</event>
<event>
 4      1 +5.9529000e-06 6.41897600e+02 7.81860800e-03 9.12859000e-02
        2 -1    0    0  501    0 +0.0000000000e+00 +0.0000000000e+00 +1.9842319118e+03 1.9842319118e+03 0.0000000000e+00 0.0000e+00 -1.0000e+00
       -2 -1    0    0    0  501 -0.0000000000e+00 -0.0000000000e+00 -5.1913353844e+01 5.1913353844e+01 0.0000000000e+00 0.0000e+00 1.0000e+00
      -13  1    1    2    0    0 +2.2147911669e+02 +1.3969380606e+02 +3.7747903544e+02 4.5941025324e+02 0.0000000000e+00 0.0000e+00 1.0000e+00
       13  1    1    2    0    0 -2.2147911669e+02 -1.3969380606e+02 +1.5548395225e+03 1.5767350124e+03 0.0000000000e+00 0.0000e+00 -1.0000e+00
<mgrwt>
<rscale>  0 0.64189760E+03</rscale>
<asrwt>0</asrwt>
<pdfrwt beam="1">  1        2 0.30526639E+00 0.64189760E+03</pdfrwt>
<pdfrwt beam="2">  1       -2 0.79866713E-02 0.64189760E+03</pdfrwt>
<totfact> 0.75861159E+02</totfact>
</mgrwt>
<rwgt>
<wgt id='morphing_basis_vector_1'> +1.9636133e-04 </wgt>
<wgt id='morphing_basis_vector_2'> +1.1441719e-04 </wgt>
<wgt id='morphing_basis_vector_3'> +1.6058649e-04 </wgt>
<wgt id='morphing_basis_vector_4'> +7.4155857e-05 </wgt>
<wgt id='morphing_basis_vector_5'> +1.1416986e-04 </wgt>
</rwgt>
</event>
<event>
 4      1 +5.9529000e-06 6.23947700e+02 7.81860800e-03 9.15857200e-02
        2 -1    0    0  501    0 +0.0000000000e+00 +0.0000000000e+00 +1.5014518167e+02 1.5014518167e+02 0.0000000000e+00 0.0000e+00 1.0000e+00
       -2 -1    0    0    0  501 -0.0000000000e+00 -0.0000000000e+00 -6.4822389100e+02 6.4822389100e+02 0.0000000000e+00 0.0000e+00 -1.0000e+00
      -13  1    1    2    0    0 +1.8907624790e+01 +1.3068729344e+02 -6.1070269943e+02 6.2481553601e+02 0.0000000000e+00 0.0000e+00 -1.0000e+00
       13  1    1    2    0    0 -1.8907624790e+01 -1.3068729344e+02 +1.1262399010e+02 1.7355353666e+02 0.0000000000e+00 0.0000e+00 1.0000e+00
<mgrwt>
<rscale>  0 0.62394773E+03</rscale>
<asrwt>0</asrwt>
<pdfrwt beam="1">  1        2 0.23099259E-01 0.62394773E+03</pdfrwt>
<pdfrwt beam="2">  1       -2 0.99726751E-01 0.62394773E+03</pdfrwt>
<totfact> 0.25457210E+02</totfact>
</mgrwt>
<rwgt>
<wgt id='morphing_basis_vector_1'> +1.7827123e-04 </wgt>
<wgt id='morphing_basis_vector_2'> +1.0210498e-04 </wgt>
<wgt id='morphing_basis_vector_3'> +1.4412949e-04 </wgt>
<wgt id='morphing_basis_vector_4'> +6.5126857e-05 </wgt>
<wgt id='morphing_basis_vector_5'> +9.9121750e-05 </wgt>
</rwgt>
</event>
<event>
 4      1 +5.9529000e-06 6.75506600e+02 7.81860800e-03 9.07512400e-02
        2 -1    0    0  501    0 +0.0000000000e+00 +0.0000000000e+00 +1.9989272992e+03 1.9989272992e+03 0.0000000000e+00 0.0000e+00 1.0000e+00
       -2 -1    0    0    0  501 -0.0000000000e+00 -0.0000000000e+00 -5.7069247874e+01 5.7069247874e+01 0.0000000000e+00 0.0000e+00 -1.0000e+00
      -13  1    1    2    0    0 +1.5295059038e+02 +2.9688704236e+02 +1.1243681217e+03 1.1729192095e+03 0.0000000000e+00 0.0000e+00 -1.0000e+00
       13  1    1    2    0    0 -1.5295059038e+02 -2.9688704236e+02 +8.1748992965e+02 8.8307733755e+02 0.0000000000e+00 0.0000e+00 1.0000e+00
<mgrwt>
<rscale>  0 0.67550656E+03</rscale>
<asrwt>0</asrwt>
<pdfrwt beam="1">  1        2 0.30752722E+00 0.67550656E+03</pdfrwt>
<pdfrwt beam="2">  1       -2 0.87798858E-02 0.67550656E+03</pdfrwt>
<totfact> 0.64124605E+02</totfact>
</mgrwt>
<rwgt>
<wgt id='morphing_basis_vector_1'> +2.4606488e-04 </wgt>
<wgt id='morphing_basis_vector_2'> +1.7730586e-04 </wgt>
<wgt id='morphing_basis_vector_3'> +1.9878715e-04 </wgt>
<wgt id='morphing_basis_vector_4'> +8.1574195e-05 </wgt>
<wgt id='morphing_basis_vector_5'> +1.4629248e-04 </wgt>
</rwgt>
</event>
<event>
 4      1 +5.9529000e-06 6.78785100e+02 7.81860800e-03 9.07008300e-02
        2 -1    0    0  501    0 +0.0000000000e+00 +0.0000000000e+00 +5.1412104756e+02 5.1412104756e+02 0.0000000000e+00 0.0000e+00 -1.0000e+00
       -2 -1    0    0    0  501 -0.0000000000e+00 -0.0000000000e+00 -2.2404706689e+02 2.2404706689e+02 0.0000000000e+00 0.0000e+00 1.0000e+00
      -13  1    1    2    0    0 -2.7146742365e+02 -1.5082761571e+02 -3.8482214814e+00 3.1057743088e+02 0.0000000000e+00 0.0000e+00 1.0000e+00
       13  1    1    2    0    0 +2.7146742365e+02 +1.5082761571e+02 +2.9392220215e+02 4.2759068357e+02 0.0000000000e+00 0.0000e+00 -1.0000e+00
<mgrwt>
<rscale>  0 0.67878513E+03</rscale>
<asrwt>0</asrwt>
<pdfrwt beam="1">  1        2 0.79095545E-01 0.67878513E+03</pdfrwt>
<pdfrwt beam="2">  1       -2 0.34468780E-01 0.67878513E+03</pdfrwt>
<totfact> 0.55668205E+02</totfact>
</mgrwt>
<rwgt>
<wgt id='morphing_basis_vector_1'> +2.3791507e-04 </wgt>
<wgt id='morphing_basis_vector_2'> +1.4264505e-04 </wgt>
<wgt id='morphing_basis_vector_3'> +1.9914292e-04 </wgt>
<wgt id='morphing_basis_vector_4'> +9.5620602e-05 </wgt>
<wgt id='morphing_basis_vector_5'> +1.4999987e-04 </wgt>
</rwgt>
</event>
<event>
 4      1 +5.9529000e-06 6.41146600e+02 7.81860800e-03 9.12982400e-02
        2 -1    0    0  501    0 +0.0000000000e+00 +0.0000000000e+00 +1.5023045472e+03 1.5023045472e+03 0.0000000000e+00 0.0000e+00 -1.0000e+00
       -2 -1    0    0    0  501 -0.0000000000e+00 -0.0000000000e+00 -6.8406404597e+01 6.8406404597e+01 0.0000000000e+00 0.0000e+00 1.0000e+00
      -13  1    1    2    0    0 -2.1994947552e+02 -2.0192570886e+02 +4.3108766572e+02 5.2439330584e+02 0.0000000000e+00 0.0000e+00 1.0000e+00
       13  1    1    2    0    0 +2.1994947552e+02 +2.0192570886e+02 +1.0028104769e+03 1.0463176459e+03 0.0000000000e+00 0.0000e+00 -1.0000e+00
<mgrwt>
<rscale>  0 0.64114664E+03</rscale>
<asrwt>0</asrwt>
<pdfrwt beam="1">  1        2 0.23112375E+00 0.64114664E+03</pdfrwt>
<pdfrwt beam="2">  1       -2 0.10524063E-01 0.64114664E+03</pdfrwt>
<totfact> 0.90420785E+02</totfact>
</mgrwt>
<rwgt>
<wgt id='morphing_basis_vector_1'> +1.9664611e-04 </wgt>
<wgt id='morphing_basis_vector_2'> +1.1719011e-04 </wgt>
<wgt id='morphing_basis_vector_3'> +1.6004635e-04 </wgt>
<wgt id='morphing_basis_vector_4'> +7.2803143e-05 </wgt>
<wgt id='morphing_basis_vector_5'> +1.1350074e-04 </wgt>
</rwgt>
</event>
<event>
 4      1 +5.9529000e-06 6.65154600e+02 7.81860800e-03 9.09123900e-02
        2 -1    0    0  501    0 +0.0000000000e+00 +0.0000000000e+00 +5.5200930194e+02 5.5200930194e+02 0.0000000000e+00 0.0000e+00 -1.0000e+00
       -2 -1    0    0    0  501 -0.0000000000e+00 -0.0000000000e+00 -2.0037281785e+02 2.0037281785e+02 0.0000000000e+00 0.0000e+00 1.0000e+00
      -13  1    1    2    0    0 -9.5290671884e+01 +2.5554034439e+02 -3.9474275075e+01 2.7557104012e+02 0.0000000000e+00 0.0000e+00 1.0000e+00
       13  1    1    2    0    0 +9.5290671884e+01 -2.5554034439e+02 +3.9111075917e+02 4.7681107967e+02 0.0000000000e+00 0.0000e+00 -1.0000e+00
<mgrwt>
<rscale>  0 0.66515460E+03</rscale>
<asrwt>0</asrwt>
<pdfrwt beam="1">  1        2 0.84924507E-01 0.66515460E+03</pdfrwt>
<pdfrwt beam="2">  1       -2 0.30826588E-01 0.66515460E+03</pdfrwt>
<totfact> 0.62635977E+02</totfact>
</mgrwt>
<rwgt>
<wgt id='morphing_basis_vector_1'> +2.2126373e-04 </wgt>
<wgt id='morphing_basis_vector_2'> +1.2993575e-04 </wgt>
<wgt id='morphing_basis_vector_3'> +1.8398182e-04 </wgt>
<wgt id='morphing_basis_vector_4'> +8.7771269e-05 </wgt>
<wgt id='morphing_basis_vector_5'> +1.3596586e-04 </wgt>
</rwgt>
</event>
<event>
 4      1 +5.9529000e-06 6.21349900e+02 7.81860800e-03 9.16299900e-02
        2 -1    0    0  501    0 +0.0000000000e+00 +0.0000000000e+00 +1.2856681663e+03 1.2856681663e+03 0.0000000000e+00 0.0000e+00 -1.0000e+00
       -2 -1    0    0    0  501 -0.0000000000e+00 -0.0000000000e+00 -7.5072964327e+01 7.5072964327e+01 0.0000000000e+00 0.0000e+00 1.0000e+00
      -13  1    1    2    0    0 -7.0915070283e+00 +2.1816520066e+02 +1.0894386476e+03 1.1110908654e+03 0.0000000000e+00 0.0000e+00 1.0000e+00
       13  1    1    2    0    0 +7.0915070283e+00 -2.1816520066e+02 +1.2115655430e+02 2.4965026517e+02 0.0000000000e+00 0.0000e+00 -1.0000e+00
<mgrwt>
<rscale>  0 0.62134989E+03</rscale>
<asrwt>0</asrwt>
<pdfrwt beam="1">  1        2 0.19779509E+00 0.62134989E+03</pdfrwt>
<pdfrwt beam="2">  1       -2 0.11549688E-01 0.62134989E+03</pdfrwt>
<totfact> 0.10312238E+03</totfact>
</mgrwt>
<rwgt>
<wgt id='morphing_basis_vector_1'> +2.2580144e-04 </wgt>
<wgt id='morphing_basis_vector_2'> +2.5538480e-04 </wgt>
<wgt id='morphing_basis_vector_3'> +1.4675127e-04 </wgt>
<wgt id='morphing_basis_vector_4'> +2.1992399e-05 </wgt>
<wgt id='morphing_basis_vector_5'> +9.6948662e-05 </wgt>
</rwgt>
</event>
<event>
 4      1 +5.9529000e-06 6.74911400e+02 7.81860800e-03 9.07604300e-02
        2 -1    0    0  501    0 +0.0000000000e+00 +0.0000000000e+00 +1.1160847701e+03 1.1160847701e+03 0.0000000000e+00 0.0000e+00 -1.0000e+00
       -2 -1    0    0    0  501 -0.0000000000e+00 -0.0000000000e+00 -1.0203197458e+02 1.0203197458e+02 0.0000000000e+00 0.0000e+00 1.0000e+00
      -13  1    1    2    0    0 -2.1482090905e+02 +4.4187637504e+01 +4.4139245386e+01 2.2371598793e+02 0.0000000000e+00 0.0000e+00 1.0000e+00
       13  1    1    2    0    0 +2.1482090905e+02 -4.4187637504e+01 +9.6991355016e+02 9.9440075677e+02 0.0000000000e+00 0.0000e+00 -1.0000e+00
<mgrwt>
<rscale>  0 0.67491135E+03</rscale>
<asrwt>0</asrwt>
<pdfrwt beam="1">  1        2 0.17170534E+00 0.67491135E+03</pdfrwt>
<pdfrwt beam="2">  1       -2 0.15697228E-01 0.67491135E+03</pdfrwt>
<totfact> 0.78834144E+02</totfact>
</mgrwt>
<rwgt>
<wgt id='morphing_basis_vector_1'> +2.3193697e-04 </wgt>
<wgt id='morphing_basis_vector_2'> +1.3539911e-04 </wgt>
<wgt id='morphing_basis_vector_3'> +1.9441641e-04 </wgt>
<wgt id='morphing_basis_vector_4'> +9.4479239e-05 </wgt>
<wgt id='morphing_basis_vector_5'> +1.4593545e-04 </wgt>
</rwgt>
</event>
<event>
 4      1 +5.9529000e-06 6.54804800e+02 7.81860800e-03 9.10766000e-02
        2 -1    0    0  501    0 +0.0000000000e+00 +0.0000000000e+00 +1.5006752060e+03 1.5006752060e+03 0.0000000000e+00 0.0000e+00 -1.0000e+00
       -2 -1    0    0    0  501 -0.0000000000e+00 -0.0000000000e+00 -7.1429400969e+01 7.1429400969e+01 0.0000000000e+00 0.0000e+00 1.0000e+00
      -13  1    1    2    0    0 -2.4886351832e+02 -9.6633087099e+01 +2.5958688739e+02 3.7236589046e+02 0.0000000000e+00 0.0000e+00 1.0000e+00
       13  1    1    2    0    0 +2.4886351832e+02 +9.6633087099e+01 +1.1696589177e+03 1.1997387165e+03 0.0000000000e+00 0.0000e+00 -1.0000e+00
<mgrwt>
<rscale>  0 0.65480480E+03</rscale>
<asrwt>0</asrwt>
<pdfrwt beam="1">  1        2 0.23087309E+00 0.65480480E+03</pdfrwt>
<pdfrwt beam="2">  1       -2 0.10989140E-01 0.65480480E+03</pdfrwt>
<totfact> 0.84595062E+02</totfact>
</mgrwt>
<rwgt>
<wgt id='morphing_basis_vector_1'> +2.0987467e-04 </wgt>
<wgt id='morphing_basis_vector_2'> +1.2279192e-04 </wgt>
<wgt id='morphing_basis_vector_3'> +1.7326052e-04 </wgt>
<wgt id='morphing_basis_vector_4'> +8.1519181e-05 </wgt>
<wgt id='morphing_basis_vector_5'> +1.2593528e-04 </wgt>
</rwgt>
</event>
<event>
 4      1 +5.9529000e-06 6.23396900e+02 7.81860800e-03 9.15950800e-02
        2 -1    0    0  501    0 +0.0000000000e+00 +0.0000000000e+00 +9.5824610006e+02 9.5824610006e+02 0.0000000000e+00 0.0000e+00 1.0000e+00
       -2 -1    0    0    0  501 -0.0000000000e+00 -0.0000000000e+00 -1.0138932647e+02 1.0138932647e+02 0.0000000000e+00 0.0000e+00 -1.0000e+00
      -13  1    1    2    0    0 -1.9028332912e+02 +1.3852986193e+02 +8.1084312046e+01 2.4894363548e+02 0.0000000000e+00 0.0000e+00 -1.0000e+00
       13  1    1    2    0    0 +1.9028332912e+02 -1.3852986193e+02 +7.7577246154e+02 8.1069179105e+02 0.0000000000e+00 0.0000e+00 1.0000e+00
<mgrwt>
<rscale>  0 0.62339691E+03</rscale>
<asrwt>0</asrwt>
<pdfrwt beam="1">  1        2 0.14742247E+00 0.62339691E+03</pdfrwt>
<pdfrwt beam="2">  1       -2 0.15598359E-01 0.62339691E+03</pdfrwt>
<totfact> 0.99467134E+02</totfact>
</mgrwt>
<rwgt>
<wgt id='morphing_basis_vector_1'> +1.7802563e-04 </wgt>
<wgt id='morphing_basis_vector_2'> +1.0263503e-04 </wgt>
<wgt id='morphing_basis_vector_3'> +1.4367738e-04 </wgt>
<wgt id='morphing_basis_vector_4'> +6.4619988e-05 </wgt>
<wgt id='morphing_basis_vector_5'> +9.8682318e-05 </wgt>
</rwgt>
</event>
<event>
 4      1 +5.9529000e-06 6.98074300e+02 7.81860800e-03 9.04101300e-02
        2 -1    0    0  501    0 +0.0000000000e+00 +0.0000000000e+00 +6.6962228994e+02 6.6962228994e+02 0.0000000000e+00 0.0000e+00 1.0000e+00
       -2 -1    0    0    0  501 -0.0000000000e+00 -0.0000000000e+00 -1.8193381184e+02 1.8193381184e+02 0.0000000000e+00 0.0000e+00 -1.0000e+00
      -13  1    1    2    0    0 +1.6598243830e+02 +5.6736034162e+01 +6.1194791807e+02 6.3659202149e+02 0.0000000000e+00 0.0000e+00 1.0000e+00
       13  1    1    2    0    0 -1.6598243830e+02 -5.6736034162e+01 -1.2425943996e+02 2.1496408029e+02 0.0000000000e+00 0.0000e+00 -1.0000e+00
<mgrwt>
<rscale>  0 0.69807431E+03</rscale>
<asrwt>0</asrwt>
<pdfrwt beam="1">  1        2 0.10301881E+00 0.69807431E+03</pdfrwt>
<pdfrwt beam="2">  1       -2 0.27989817E-01 0.69807431E+03</pdfrwt>
<totfact> 0.59041855E+02</totfact>
</mgrwt>
<rwgt>
<wgt id='morphing_basis_vector_1'> +3.4987390e-04 </wgt>
<wgt id='morphing_basis_vector_2'> +4.2949881e-04 </wgt>
<wgt id='morphing_basis_vector_3'> +2.5211663e-04 </wgt>
<wgt id='morphing_basis_vector_4'> +1.6740646e-05 </wgt>
<wgt id='morphing_basis_vector_5'> +1.6924159e-04 </wgt>
</rwgt>
</event>
<event>
 4      1 +5.9529000e-06 6.31255400e+02 7.81860800e-03 9.14623900e-02
        2 -1    0    0  501    0 +0.0000000000e+00 +0.0000000000e+00 +1.6179716087e+03 1.6179716087e+03 0.0000000000e+00 0.0000e+00 1.0000e+00
       -2 -1    0    0    0  501 -0.0000000000e+00 -0.0000000000e+00 -6.1571441440e+01 6.1571441440e+01 0.0000000000e+00 0.0000e+00 -1.0000e+00
      -13  1    1    2    0    0 +2.8512592650e+02 +1.2839854970e+02 +6.6413766947e+02 7.3407208470e+02 0.0000000000e+00 0.0000e+00 -1.0000e+00
       13  1    1    2    0    0 -2.8512592650e+02 -1.2839854970e+02 +8.9226249780e+02 9.4547096545e+02 0.0000000000e+00 0.0000e+00 1.0000e+00
<mgrwt>
<rscale>  0 0.63125540E+03</rscale>
<asrwt>0</asrwt>
<pdfrwt beam="1">  1        2 0.24891868E+00 0.63125540E+03</pdfrwt>
<pdfrwt beam="2">  1       -2 0.94725306E-02 0.63125540E+03</pdfrwt>
<totfact> 0.92250518E+02</totfact>
</mgrwt>
<rwgt>
<wgt id='morphing_basis_vector_1'> +1.8908158e-04 </wgt>
<wgt id='morphing_basis_vector_2'> +1.1817403e-04 </wgt>
<wgt id='morphing_basis_vector_3'> +1.5113282e-04 </wgt>
<wgt id='morphing_basis_vector_4'> +6.5570570e-05 </wgt>
<wgt id='morphing_basis_vector_5'> +1.0504890e-04 </wgt>
</rwgt>
</event>
<event>
 4      1 +5.9529000e-06 7.35090500e+02 7.81860800e-03 8.98787400e-02
        2 -1    0    0  501    0 +0.0000000000e+00 +0.0000000000e+00 +5.7728206544e+02 5.7728206544e+02 0.0000000000e+00 0.0000e+00 1.0000e+00
       -2 -1    0    0    0  501 -0.0000000000e+00 -0.0000000000e+00 -2.3400955800e+02 2.3400955800e+02 0.0000000000e+00 0.0000e+00 -1.0000e+00
      -13  1    1    2    0    0 -2.7692540758e+02 +1.2750615112e+02 +3.9820716451e+02 5.0151215918e+02 0.0000000000e+00 0.0000e+00 1.0000e+00
       13  1    1    2    0    0 +2.7692540758e+02 -1.2750615112e+02 -5.4934657073e+01 3.0977946427e+02 0.0000000000e+00 0.0000e+00 -1.0000e+00
<mgrwt>
<rscale>  0 0.73509053E+03</rscale>
<asrwt>0</asrwt>
<pdfrwt beam="1">  1        2 0.88812625E-01 0.73509053E+03</pdfrwt>
<pdfrwt beam="2">  1       -2 0.36001471E-01 0.73509053E+03</pdfrwt>
<totfact> 0.44924206E+02</totfact>
</mgrwt>
<rwgt>
<wgt id='morphing_basis_vector_1'> +3.7497908e-04 </wgt>
<wgt id='morphing_basis_vector_2'> +3.8185015e-04 </wgt>
<wgt id='morphing_basis_vector_3'> +2.9869949e-04 </wgt>
<wgt id='morphing_basis_vector_4'> +6.7883078e-05 </wgt>
<wgt id='morphing_basis_vector_5'> +2.1675546e-04 </wgt>
</rwgt>
</event>
<event>
 4      1 +5.9529000e-06 6.32080500e+02 7.81860800e-03 9.14485800e-02
        2 -1    0    0  501    0 +0.0000000000e+00 +0.0000000000e+00 +8.9125878641e+02 8.9125878641e+02 0.0000000000e+00 0.0000e+00 -1.0000e+00
       -2 -1    0    0    0  501 -0.0000000000e+00 -0.0000000000e+00 -1.1206784532e+02 1.1206784532e+02 0.0000000000e+00 0.0000e+00 1.0000e+00
      -13  1    1    2    0    0 +3.7220065169e+01 -1.7195981698e+02 -2.7140770192e+01 1.7802284492e+02 0.0000000000e+00 0.0000e+00 1.0000e+00
       13  1    1    2    0    0 -3.7220065169e+01 +1.7195981698e+02 +8.0633171128e+02 8.2530378681e+02 0.0000000000e+00 0.0000e+00 -1.0000e+00
<mgrwt>
<rscale>  0 0.63208054E+03</rscale>
<asrwt>0</asrwt>
<pdfrwt beam="1">  1        2 0.13711673E+00 0.63208054E+03</pdfrwt>
<pdfrwt beam="2">  1       -2 0.17241208E-01 0.63208054E+03</pdfrwt>
<totfact> 0.93234716E+02</totfact>
</mgrwt>
<rwgt>
<wgt id='morphing_basis_vector_1'> +1.8611597e-04 </wgt>
<wgt id='morphing_basis_vector_2'> +1.0699588e-04 </wgt>
<wgt id='morphing_basis_vector_3'> +1.5138191e-04 </wgt>
<wgt id='morphing_basis_vector_4'> +6.9271546e-05 </wgt>
<wgt id='morphing_basis_vector_5'> +1.0575720e-04 </wgt>
</rwgt>
</event>
<event>
 4      1 +5.9529000e-06 6.29839000e+02 7.81860800e-03 9.14861600e-02
        2 -1    0    0  501    0 +0.0000000000e+00 +0.0000000000e+00 +1.0235315791e+03 1.0235315791e+03 0.0000000000e+00 0.0000e+00 -1.0000e+00
       -2 -1    0    0    0  501 -0.0000000000e+00 -0.0000000000e+00 -9.6894208336e+01 9.6894208336e+01 0.0000000000e+00 0.0000e+00 1.0000e+00
      -13  1    1    2    0    0 +2.5956743478e+02 -1.4069701123e+02 +2.6842160055e+02 3.9902513431e+02 0.0000000000e+00 0.0000e+00 1.0000e+00
       13  1    1    2    0    0 -2.5956743478e+02 +1.4069701123e+02 +6.5821577020e+02 7.2140065311e+02 0.0000000000e+00 0.0000e+00 -1.0000e+00
<mgrwt>
<rscale>  0 0.62983897E+03</rscale>
<asrwt>0</asrwt>
<pdfrwt beam="1">  1        2 0.15746639E+00 0.62983897E+03</pdfrwt>
<pdfrwt beam="2">  1       -2 0.14906802E-01 0.62983897E+03</pdfrwt>
<totfact> 0.97524351E+02</totfact>
</mgrwt>
<rwgt>
<wgt id='morphing_basis_vector_1'> +1.8546944e-04 </wgt>
<wgt id='morphing_basis_vector_2'> +1.1040562e-04 </wgt>
<wgt id='morphing_basis_vector_3'> +1.4955147e-04 </wgt>
<wgt id='morphing_basis_vector_4'> +6.6779632e-05 </wgt>
<wgt id='morphing_basis_vector_5'> +1.0389027e-04 </wgt>
</rwgt>
</event>
<event>
 4      1 +5.9529000e-06 6.42253400e+02 7.81860800e-03 9.12800600e-02
        2 -1    0    0  501    0 +0.0000000000e+00 +0.0000000000e+00 +1.7314848287e+03 1.7314848287e+03 0.0000000000e+00 0.0000e+00 1.0000e+00
       -2 -1    0    0    0  501 -0.0000000000e+00 -0.0000000000e+00 -5.9557187823e+01 5.9557187823e+01 0.0000000000e+00 0.0000e+00 -1.0000e+00
      -13  1    1    2    0    0 +3.1438399107e+02 +3.4601989500e+01 +9.9092474884e+02 1.0401761627e+03 0.0000000000e+00 0.0000e+00 -1.0000e+00
       13  1    1    2    0    0 -3.1438399107e+02 -3.4601989500e+01 +6.8100289203e+02 7.5086585385e+02 0.0000000000e+00 0.0000e+00 1.0000e+00
<mgrwt>
<rscale>  0 0.64225343E+03</rscale>
<asrwt>0</asrwt>
<pdfrwt beam="1">  1        2 0.26638224E+00 0.64225343E+03</pdfrwt>
<pdfrwt beam="2">  1       -2 0.91626456E-02 0.64225343E+03</pdfrwt>
<totfact> 0.84217673E+02</totfact>
</mgrwt>
<rwgt>
<wgt id='morphing_basis_vector_1'> +2.0857275e-04 </wgt>
<wgt id='morphing_basis_vector_2'> +1.5129741e-04 </wgt>
<wgt id='morphing_basis_vector_3'> +1.6293851e-04 </wgt>
<wgt id='morphing_basis_vector_4'> +6.3700393e-05 </wgt>
<wgt id='morphing_basis_vector_5'> +1.1437346e-04 </wgt>
</rwgt>
</event>
<event>
 4      1 +5.9529000e-06 6.22438400e+02 7.81860800e-03 9.16114100e-02
        2 -1    0    0  501    0 +0.0000000000e+00 +0.0000000000e+00 +2.1686356154e+03 2.1686356154e+03 0.0000000000e+00 0.0000e+00 -1.0000e+00
       -2 -1    0    0    0  501 -0.0000000000e+00 -0.0000000000e+00 -4.4662819935e+01 4.4662819935e+01 0.0000000000e+00 0.0000e+00 1.0000e+00
      -13  1    1    2    0    0 +3.0332550516e+02 -1.2725019936e+01 +8.1849250222e+02 8.7298239638e+02 0.0000000000e+00 0.0000e+00 1.0000e+00
       13  1    1    2    0    0 -3.0332550516e+02 +1.2725019936e+01 +1.3054802933e+03 1.3403160390e+03 0.0000000000e+00 0.0000e+00 -1.0000e+00
<mgrwt>
<rscale>  0 0.62243837E+03</rscale>
<asrwt>0</asrwt>
<pdfrwt beam="1">  1        2 0.33363617E+00 0.62243837E+03</pdfrwt>
<pdfrwt beam="2">  1       -2 0.68712048E-02 0.62243837E+03</pdfrwt>
<totfact> 0.75759444E+02</totfact>
</mgrwt>
<rwgt>
<wgt id='morphing_basis_vector_1'> +1.7945639e-04 </wgt>
<wgt id='morphing_basis_vector_2'> +1.0930545e-04 </wgt>
<wgt id='morphing_basis_vector_3'> +1.4307939e-04 </wgt>
<wgt id='morphing_basis_vector_4'> +6.2182569e-05 </wgt>
<wgt id='morphing_basis_vector_5'> +9.7916104e-05 </wgt>
</rwgt>
</event>
<event>
 4      1 +5.9529000e-06 7.07088500e+02 7.81860800e-03 9.02776200e-02
        2 -1    0    0  501    0 +0.0000000000e+00 +0.0000000000e+00 +2.2285267044e+02 2.2285267044e+02 0.0000000000e+00 0.0000e+00 -1.0000e+00
       -2 -1    0    0    0  501 -0.0000000000e+00 -0.0000000000e+00 -5.6087963864e+02 5.6087963864e+02 0.0000000000e+00 0.0000e+00 1.0000e+00
      -13  1    1    2    0    0 -3.4475036884e+02 -2.6146968591e+01 -8.7134443789e+01 3.5655138770e+02 0.0000000000e+00 0.0000e+00 1.0000e+00
       13  1    1    2    0    0 +3.4475036884e+02 +2.6146968591e+01 -2.5089252442e+02 4.2718092137e+02 0.0000000000e+00 0.0000e+00 -1.0000e+00
<mgrwt>
<rscale>  0 0.70708847E+03</rscale>
<asrwt>0</asrwt>
<pdfrwt beam="1">  1        2 0.34285027E-01 0.70708847E+03</pdfrwt>
<pdfrwt beam="2">  1       -2 0.86289173E-01 0.70708847E+03</pdfrwt>
<totfact> 0.22516920E+02</totfact>
</mgrwt>
<rwgt>
<wgt id='morphing_basis_vector_1'> +2.9122021e-04 </wgt>
<wgt id='morphing_basis_vector_2'> +2.1988628e-04 </wgt>
<wgt id='morphing_basis_vector_3'> +2.3969866e-04 </wgt>
<wgt id='morphing_basis_vector_4'> +9.6747334e-05 </wgt>
<wgt id='morphing_basis_vector_5'> +1.8188439e-04 </wgt>
</rwgt>
</event>
<event>
 4      1 +5.9529000e-06 6.71295400e+02 7.81860800e-03 9.08164300e-02
        2 -1    0    0  501    0 +0.0000000000e+00 +0.0000000000e+00 +9.0819391347e+02 9.0819391347e+02 0.0000000000e+00 0.0000e+00 1.0000e+00
       -2 -1    0    0    0  501 -0.0000000000e+00 -0.0000000000e+00 -1.2404772244e+02 1.2404772244e+02 0.0000000000e+00 0.0000e+00 -1.0000e+00
      -13  1    1    2    0    0 +3.1327617780e+02 -1.2039834444e+02 +3.9922979444e+02 5.2155743086e+02 0.0000000000e+00 0.0000e+00 -1.0000e+00
       13  1    1    2    0    0 -3.1327617780e+02 +1.2039834444e+02 +3.8491639659e+02 5.1068420505e+02 0.0000000000e+00 0.0000e+00 1.0000e+00
<mgrwt>
<rscale>  0 0.67129542E+03</rscale>
<asrwt>0</asrwt>
<pdfrwt beam="1">  1        2 0.13972214E+00 0.67129542E+03</pdfrwt>
<pdfrwt beam="2">  1       -2 0.19084266E-01 0.67129542E+03</pdfrwt>
<totfact> 0.76828466E+02</totfact>
</mgrwt>
<rwgt>
<wgt id='morphing_basis_vector_1'> +2.3586565e-04 </wgt>
<wgt id='morphing_basis_vector_2'> +1.5784599e-04 </wgt>
<wgt id='morphing_basis_vector_3'> +1.9258928e-04 </wgt>
<wgt id='morphing_basis_vector_4'> +8.4187333e-05 </wgt>
<wgt id='morphing_basis_vector_5'> +1.4203499e-04 </wgt>
</rwgt>
</event>
<event>
 4      1 +5.9529000e-06 7.03966100e+02 7.81860800e-03 9.03232900e-02
        2 -1    0    0  501    0 +0.0000000000e+00 +0.0000000000e+00 +1.2305240975e+02 1.2305240975e+02 0.0000000000e+00 0.0000e+00 -1.0000e+00
       -2 -1    0    0    0  501 -0.0000000000e+00 -0.0000000000e+00 -1.0068236597e+03 1.0068236597e+03 0.0000000000e+00 0.0000e+00 1.0000e+00
      -13  1    1    2    0    0 -3.3301901881e+02 -1.5664019524e+01 -6.2308212463e+02 7.0666708034e+02 0.0000000000e+00 0.0000e+00 1.0000e+00
       13  1    1    2    0    0 +3.3301901881e+02 +1.5664019524e+01 -2.6068912529e+02 4.2320898908e+02 0.0000000000e+00 0.0000e+00 -1.0000e+00
<mgrwt>
<rscale>  0 0.70396613E+03</rscale>
<asrwt>0</asrwt>
<pdfrwt beam="1">  1        2 0.18931140E-01 0.70396613E+03</pdfrwt>
<pdfrwt beam="2">  1       -2 0.15489595E+00 0.70396613E+03</pdfrwt>
<totfact> 0.10099950E+02</totfact>
</mgrwt>
<rwgt>
<wgt id='morphing_basis_vector_1'> +2.7021664e-04 </wgt>
<wgt id='morphing_basis_vector_2'> +1.6524038e-04 </wgt>
<wgt id='morphing_basis_vector_3'> +2.2950972e-04 </wgt>
<wgt id='morphing_basis_vector_4'> +1.1244018e-04 </wgt>
<wgt id='morphing_basis_vector_5'> +1.7858290e-04 </wgt>
</rwgt>
</event>
<event>
 4      1 +5.9529000e-06 6.25097000e+02 7.81860800e-03 9.15662000e-02
        2 -1    0    0  501    0 +0.0000000000e+00 +0.0000000000e+00 +2.5707672324e+02 2.5707672324e+02 0.0000000000e+00 0.0000e+00 1.0000e+00
       -2 -1    0    0    0  501 -0.0000000000e+00 -0.0000000000e+00 -3.7998989606e+02 3.7998989606e+02 0.0000000000e+00 0.0000e+00 -1.0000e+00
      -13  1    1    2    0    0 -5.4083459959e+01 -2.2130971438e+02 +1.5661152875e+02 2.7646008981e+02 0.0000000000e+00 0.0000e+00 1.0000e+00
       13  1    1    2    0    0 +5.4083459959e+01 +2.2130971438e+02 -2.7952470157e+02 3.6060652949e+02 0.0000000000e+00 0.0000e+00 -1.0000e+00
<mgrwt>
<rscale>  0 0.62509698E+03</rscale>
<asrwt>0</asrwt>
<pdfrwt beam="1">  1        2 0.39550265E-01 0.62509698E+03</pdfrwt>
<pdfrwt beam="2">  1       -2 0.58459984E-01 0.62509698E+03</pdfrwt>
<totfact> 0.44448329E+02</totfact>
</mgrwt>
<rwgt>
<wgt id='morphing_basis_vector_1'> +2.2791153e-04 </wgt>
<wgt id='morphing_basis_vector_2'> +2.5312525e-04 </wgt>
<wgt id='morphing_basis_vector_3'> +1.5052086e-04 </wgt>
<wgt id='morphing_basis_vector_4'> +2.4500749e-05 </wgt>
<wgt id='morphing_basis_vector_5'> +9.9866896e-05 </wgt>
</rwgt>
</event>
<event>
 4      1 +5.9529000e-06 6.85381800e+02 7.81860800e-03 9.06003000e-02
        2 -1    0    0  501    0 +0.0000000000e+00 +0.0000000000e+00 +6.8064149617e+02 6.8064149617e+02 0.0000000000e+00 0.0000e+00 -1.0000e+00
       -2 -1    0    0    0  501 -0.0000000000e+00 -0.0000000000e+00 -1.7253877744e+02 1.7253877744e+02 0.0000000000e+00 0.0000e+00 1.0000e+00
      -13  1    1    2    0    0 +1.4238841784e+02 +1.1398478511e+02 -1.0709817202e+02 2.1151125554e+02 0.0000000000e+00 0.0000e+00 1.0000e+00
       13  1    1    2    0    0 -1.4238841784e+02 -1.1398478511e+02 +6.1520089075e+02 6.4166901807e+02 0.0000000000e+00 0.0000e+00 -1.0000e+00
<mgrwt>
<rscale>  0 0.68538180E+03</rscale>
<asrwt>0</asrwt>
<pdfrwt beam="1">  1        2 0.10471407E+00 0.68538180E+03</pdfrwt>
<pdfrwt beam="2">  1       -2 0.26544428E-01 0.68538180E+03</pdfrwt>
<totfact> 0.63489814E+02</totfact>
</mgrwt>
<rwgt>
<wgt id='morphing_basis_vector_1'> +2.4426963e-04 </wgt>
<wgt id='morphing_basis_vector_2'> +1.4278146e-04 </wgt>
<wgt id='morphing_basis_vector_3'> +2.0621847e-04 </wgt>
<wgt id='morphing_basis_vector_4'> +1.0166384e-04 </wgt>
<wgt id='morphing_basis_vector_5'> +1.5719059e-04 </wgt>
</rwgt>
</event>
<event>
 4      1 +5.9529000e-06 7.33917800e+02 7.81860800e-03 8.98950600e-02
        2 -1    0    0  501    0 +0.0000000000e+00 +0.0000000000e+00 +7.7095884235e+02 7.7095884235e+02 0.0000000000e+00 0.0000e+00 1.0000e+00
       -2 -1    0    0    0  501 -0.0000000000e+00 -0.0000000000e+00 -1.7466407874e+02 1.7466407874e+02 0.0000000000e+00 0.0000e+00 -1.0000e+00
      -13  1    1    2    0    0 +9.3974247716e+00 -2.8970132243e+02 +8.1907204064e+00 2.8996940478e+02 0.0000000000e+00 0.0000e+00 -1.0000e+00
       13  1    1    2    0    0 -9.3974247716e+00 +2.8970132243e+02 +5.8810404321e+02 6.5565351631e+02 0.0000000000e+00 0.0000e+00 1.0000e+00
<mgrwt>
<rscale>  0 0.73391775E+03</rscale>
<asrwt>0</asrwt>
<pdfrwt beam="1">  1        2 0.11860905E+00 0.73391775E+03</pdfrwt>
<pdfrwt beam="2">  1       -2 0.26871397E-01 0.73391775E+03</pdfrwt>
<totfact> 0.53211507E+02</totfact>
</mgrwt>
<rwgt>
<wgt id='morphing_basis_vector_1'> +3.0960281e-04 </wgt>
<wgt id='morphing_basis_vector_2'> +1.8500124e-04 </wgt>
<wgt id='morphing_basis_vector_3'> +2.6878551e-04 </wgt>
<wgt id='morphing_basis_vector_4'> +1.3893857e-04 </wgt>
<wgt id='morphing_basis_vector_5'> +2.1749294e-04 </wgt>
</rwgt>
</event>
<event>
 4      1 +5.9529000e-06 6.56382000e+02 7.81860800e-03 9.10513800e-02
        2 -1    0    0  501    0 +0.0000000000e+00 +0.0000000000e+00 +6.2767565423e+02 6.2767565423e+02 0.0000000000e+00 0.0000e+00 -1.0000e+00
       -2 -1    0    0    0  501 -0.0000000000e+00 -0.0000000000e+00 -1.7160028702e+02 1.7160028702e+02 0.0000000000e+00 0.0000e+00 1.0000e+00
      -13  1    1    2    0    0 -1.1232456261e+02 +2.5203829511e+02 +1.1680173582e+01 2.7618207043e+02 0.0000000000e+00 0.0000e+00 1.0000e+00
       13  1    1    2    0    0 +1.1232456261e+02 -2.5203829511e+02 +4.4439519363e+02 5.2309387083e+02 0.0000000000e+00 0.0000e+00 -1.0000e+00
<mgrwt>
<rscale>  0 0.65638197E+03</rscale>
<asrwt>0</asrwt>
<pdfrwt beam="1">  1        2 0.96565484E-01 0.65638197E+03</pdfrwt>
<pdfrwt beam="2">  1       -2 0.26400045E-01 0.65638197E+03</pdfrwt>
<totfact> 0.70670257E+02</totfact>
</mgrwt>
<rwgt>
<wgt id='morphing_basis_vector_1'> +2.1171325e-04 </wgt>
<wgt id='morphing_basis_vector_2'> +1.2427375e-04 </wgt>
<wgt id='morphing_basis_vector_3'> +1.7489093e-04 </wgt>
<wgt id='morphing_basis_vector_4'> +8.2324684e-05 </wgt>
<wgt id='morphing_basis_vector_5'> +1.2742712e-04 </wgt>
</rwgt>
</event>
<event>
 4      1 +5.9529000e-06 6.29834600e+02 7.81860800e-03 9.14862300e-02
        2 -1    0    0  501    0 +0.0000000000e+00 +0.0000000000e+00 +1.1202489822e+03 1.1202489822e+03 0.0000000000e+00 0.0000e+00 -1.0000e+00
       -2 -1    0    0    0  501 -0.0000000000e+00 -0.0000000000e+00 -8.8527563869e+01 8.8527563869e+01 0.0000000000e+00 0.0000e+00 1.0000e+00
      -13  1    1    2    0    0 +1.0053332505e+02 -1.7967137939e+02 +5.8527126265e+01 2.1404246898e+02 0.0000000000e+00 0.0000e+00 1.0000e+00
       13  1    1    2    0    0 -1.0053332505e+02 +1.7967137939e+02 +9.7319429209e+02 9.9473407711e+02 0.0000000000e+00 0.0000e+00 -1.0000e+00
<mgrwt>
<rscale>  0 0.62983462E+03</rscale>
<asrwt>0</asrwt>
<pdfrwt beam="1">  1        2 0.17234599E+00 0.62983462E+03</pdfrwt>
<pdfrwt beam="2">  1       -2 0.13619626E-01 0.62983462E+03</pdfrwt>
<totfact> 0.98703131E+02</totfact>
</mgrwt>
<rwgt>
<wgt id='morphing_basis_vector_1'> +1.8400794e-04 </wgt>
<wgt id='morphing_basis_vector_2'> +1.0589138e-04 </wgt>
<wgt id='morphing_basis_vector_3'> +1.4936179e-04 </wgt>
<wgt id='morphing_basis_vector_4'> +6.8034760e-05 </wgt>
<wgt id='morphing_basis_vector_5'> +1.0389423e-04 </wgt>
</rwgt>
</event>
<event>
 4      1 +5.9529000e-06 7.05462800e+02 7.81860800e-03 9.03013600e-02
        2 -1    0    0  501    0 +0.0000000000e+00 +0.0000000000e+00 +7.6371529368e+02 7.6371529368e+02 0.0000000000e+00 0.0000e+00 -1.0000e+00
       -2 -1    0    0    0  501 -0.0000000000e+00 -0.0000000000e+00 -1.6291338827e+02 1.6291338827e+02 0.0000000000e+00 0.0000e+00 1.0000e+00
      -13  1    1    2    0    0 -2.9509735311e+02 -4.4520355762e+01 +5.3423878969e+01 3.0318083833e+02 0.0000000000e+00 0.0000e+00 1.0000e+00
       13  1    1    2    0    0 +2.9509735311e+02 +4.4520355762e+01 +5.4737802644e+02 6.2344784362e+02 0.0000000000e+00 0.0000e+00 -1.0000e+00
<mgrwt>
<rscale>  0 0.70546282E+03</rscale>
<asrwt>0</asrwt>
<pdfrwt beam="1">  1        2 0.11749466E+00 0.70546282E+03</pdfrwt>
<pdfrwt beam="2">  1       -2 0.25063599E-01 0.70546282E+03</pdfrwt>
<totfact> 0.60770898E+02</totfact>
</mgrwt>
<rwgt>
<wgt id='morphing_basis_vector_1'> +2.7047933e-04 </wgt>
<wgt id='morphing_basis_vector_2'> +1.6123868e-04 </wgt>
<wgt id='morphing_basis_vector_3'> +2.3078340e-04 </wgt>
<wgt id='morphing_basis_vector_4'> +1.1537577e-04 </wgt>
<wgt id='morphing_basis_vector_5'> +1.8044505e-04 </wgt>
</rwgt>
</event>
<event>
 4      1 +5.9529000e-06 6.65003800e+02 7.81860800e-03 9.09147600e-02
        2 -1    0    0  501    0 +0.0000000000e+00 +0.0000000000e+00 +4.7694240469e+02 4.7694240469e+02 0.0000000000e+00 0.0000e+00 -1.0000e+00
       -2 -1    0    0    0  501 -0.0000000000e+00 -0.0000000000e+00 -2.3180476854e+02 2.3180476854e+02 0.0000000000e+00 0.0000e+00 1.0000e+00
      -13  1    1    2    0    0 +1.5502399358e+01 -1.8860753747e+02 -1.6880901655e+02 2.5359339827e+02 0.0000000000e+00 0.0000e+00 1.0000e+00
       13  1    1    2    0    0 -1.5502399358e+01 +1.8860753747e+02 +4.1394665271e+02 4.5515377497e+02 0.0000000000e+00 0.0000e+00 -1.0000e+00
<mgrwt>
<rscale>  0 0.66500383E+03</rscale>
<asrwt>0</asrwt>
<pdfrwt beam="1">  1        2 0.73375754E-01 0.66500383E+03</pdfrwt>
<pdfrwt beam="2">  1       -2 0.35662272E-01 0.66500383E+03</pdfrwt>
<totfact> 0.57040617E+02</totfact>
</mgrwt>
<rwgt>
<wgt id='morphing_basis_vector_1'> +2.2055713e-04 </wgt>
<wgt id='morphing_basis_vector_2'> +1.2816961e-04 </wgt>
<wgt id='morphing_basis_vector_3'> +1.8369105e-04 </wgt>
<wgt id='morphing_basis_vector_4'> +8.8194626e-05 </wgt>
<wgt id='morphing_basis_vector_5'> +1.3582475e-04 </wgt>
</rwgt>
</event>
<event>
 4      1 +5.9529000e-06 6.48297200e+02 7.81860800e-03 9.11814900e-02
        2 -1    0    0  501    0 +0.0000000000e+00 +0.0000000000e+00 +1.5105356068e+03 1.5105356068e+03 0.0000000000e+00 0.0000e+00 1.0000e+00
       -2 -1    0    0    0  501 -0.0000000000e+00 -0.0000000000e+00 -6.9559637106e+01 6.9559637106e+01 0.0000000000e+00 0.0000e+00 -1.0000e+00
      -13  1    1    2    0    0 -2.0108199461e+02 +1.5718628282e+02 +2.3344958162e+02 3.4589044974e+02 0.0000000000e+00 0.0000e+00 -1.0000e+00
       13  1    1    2    0    0 +2.0108199461e+02 -1.5718628282e+02 +1.2075263881e+03 1.2342047942e+03 0.0000000000e+00 0.0000e+00 1.0000e+00
<mgrwt>
<rscale>  0 0.64829718E+03</rscale>
<asrwt>0</asrwt>
<pdfrwt beam="1">  1        2 0.23239007E+00 0.64829718E+03</pdfrwt>
<pdfrwt beam="2">  1       -2 0.10701484E-01 0.64829718E+03</pdfrwt>
<totfact> 0.87134275E+02</totfact>
</mgrwt>
<rwgt>
<wgt id='morphing_basis_vector_1'> +2.0285784e-04 </wgt>
<wgt id='morphing_basis_vector_2'> +1.1815819e-04 </wgt>
<wgt id='morphing_basis_vector_3'> +1.6675493e-04 </wgt>
<wgt id='morphing_basis_vector_4'> +7.7847695e-05 </wgt>
<wgt id='morphing_basis_vector_5'> +1.1990324e-04 </wgt>
</rwgt>
</event>
<event>
 4      1 +5.9529000e-06 6.69510000e+02 7.81860800e-03 9.08442200e-02
        2 -1    0    0  501    0 +0.0000000000e+00 +0.0000000000e+00 +1.9416706061e+03 1.9416706061e+03 0.0000000000e+00 0.0000e+00 1.0000e+00
       -2 -1    0    0    0  501 -0.0000000000e+00 -0.0000000000e+00 -5.7713651829e+01 5.7713651829e+01 0.0000000000e+00 0.0000e+00 -1.0000e+00
      -13  1    1    2    0    0 -3.2614233325e+02 +4.8109896701e+01 +7.6842311761e+02 8.3615636778e+02 0.0000000000e+00 0.0000e+00 1.0000e+00
       13  1    1    2    0    0 +3.2614233325e+02 -4.8109896701e+01 +1.1155338367e+03 1.1632278902e+03 0.0000000000e+00 0.0000e+00 -1.0000e+00
<mgrwt>
<rscale>  0 0.66950997E+03</rscale>
<asrwt>0</asrwt>
<pdfrwt beam="1">  1        2 0.29871850E+00 0.66950997E+03</pdfrwt>
<pdfrwt beam="2">  1       -2 0.88790248E-02 0.66950997E+03</pdfrwt>
<totfact> 0.67778952E+02</totfact>
</mgrwt>
<rwgt>
<wgt id='morphing_basis_vector_1'> +2.2961683e-04 </wgt>
<wgt id='morphing_basis_vector_2'> +1.4358877e-04 </wgt>
<wgt id='morphing_basis_vector_3'> +1.8952606e-04 </wgt>
<wgt id='morphing_basis_vector_4'> +8.7176280e-05 </wgt>
<wgt id='morphing_basis_vector_5'> +1.4028893e-04 </wgt>
</rwgt>
</event>
<event>
 4      1 +5.9529000e-06 6.28371700e+02 7.81860800e-03 9.15108500e-02
        2 -1    0    0  501    0 +0.0000000000e+00 +0.0000000000e+00 +4.7246087711e+02 4.7246087711e+02 0.0000000000e+00 0.0000e+00 -1.0000e+00
       -2 -1    0    0    0  501 -0.0000000000e+00 -0.0000000000e+00 -2.0893318289e+02 2.0893318289e+02 0.0000000000e+00 0.0000e+00 1.0000e+00
      -13  1    1    2    0    0 +1.6139918848e+02 -2.2236606899e+02 -3.3462400431e+01 2.7679613242e+02 0.0000000000e+00 0.0000e+00 1.0000e+00
       13  1    1    2    0    0 -1.6139918848e+02 +2.2236606899e+02 +2.9699009465e+02 4.0459792758e+02 0.0000000000e+00 0.0000e+00 -1.0000e+00
<mgrwt>
<rscale>  0 0.62837172E+03</rscale>
<asrwt>0</asrwt>
<pdfrwt beam="1">  1        2 0.72686288E-01 0.62837172E+03</pdfrwt>
<pdfrwt beam="2">  1       -2 0.32143567E-01 0.62837172E+03</pdfrwt>
<totfact> 0.69535492E+02</totfact>
</mgrwt>
<rwgt>
<wgt id='morphing_basis_vector_1'> +1.8328549e-04 </wgt>
<wgt id='morphing_basis_vector_2'> +1.0715948e-04 </wgt>
<wgt id='morphing_basis_vector_3'> +1.4813512e-04 </wgt>
<wgt id='morphing_basis_vector_4'> +6.6688444e-05 </wgt>
<wgt id='morphing_basis_vector_5'> +1.0269026e-04 </wgt>
</rwgt>
</event>
<event>
 4      1 +5.9529000e-06 7.21288700e+02 7.81860800e-03 9.00729700e-02
        2 -1    0    0  501    0 +0.0000000000e+00 +0.0000000000e+00 +4.4126200338e+02 4.4126200338e+02 0.0000000000e+00 0.0000e+00 -1.0000e+00
       -2 -1    0    0    0  501 -0.0000000000e+00 -0.0000000000e+00 -2.9475539195e+02 2.9475539195e+02 0.0000000000e+00 0.0000e+00 1.0000e+00
      -13  1    1    2    0    0 -1.2720353623e+02 +2.4537704742e+02 -1.6315339647e+02 3.2095118914e+02 0.0000000000e+00 0.0000e+00 1.0000e+00
       13  1    1    2    0    0 +1.2720353623e+02 -2.4537704742e+02 +3.0966000789e+02 4.1506620619e+02 0.0000000000e+00 0.0000e+00 -1.0000e+00
<mgrwt>
<rscale>  0 0.72128872E+03</rscale>
<asrwt>0</asrwt>
<pdfrwt beam="1">  1        2 0.67886462E-01 0.72128872E+03</pdfrwt>
<pdfrwt beam="2">  1       -2 0.45346984E-01 0.72128872E+03</pdfrwt>
<totfact> 0.39759919E+02</totfact>
</mgrwt>
<rwgt>
<wgt id='morphing_basis_vector_1'> +2.9144189e-04 </wgt>
<wgt id='morphing_basis_vector_2'> +1.7326931e-04 </wgt>
<wgt id='morphing_basis_vector_3'> +2.5126001e-04 </wgt>
<wgt id='morphing_basis_vector_4'> +1.2839415e-04 </wgt>
<wgt id='morphing_basis_vector_5'> +2.0045050e-04 </wgt>
</rwgt>
</event>
<event>
 4      1 +5.9529000e-06 6.75299200e+02 7.81860800e-03 9.07544400e-02
        2 -1    0    0  501    0 +0.0000000000e+00 +0.0000000000e+00 +5.2324219142e+02 5.2324219142e+02 0.0000000000e+00 0.0000e+00 -1.0000e+00
       -2 -1    0    0    0  501 -0.0000000000e+00 -0.0000000000e+00 -2.1788618182e+02 2.1788618182e+02 0.0000000000e+00 0.0000e+00 1.0000e+00
      -13  1    1    2    0    0 -1.3600473261e+02 -1.0758326035e+02 -1.6528078418e+02 2.3956039493e+02 0.0000000000e+00 0.0000e+00 1.0000e+00
       13  1    1    2    0    0 +1.3600473261e+02 +1.0758326035e+02 +4.7063679378e+02 5.0156797831e+02 0.0000000000e+00 0.0000e+00 -1.0000e+00
<mgrwt>
<rscale>  0 0.67529917E+03</rscale>
<asrwt>0</asrwt>
<pdfrwt beam="1">  1        2 0.80498798E-01 0.67529917E+03</pdfrwt>
<pdfrwt beam="2">  1       -2 0.33520951E-01 0.67529917E+03</pdfrwt>
<totfact> 0.57368435E+02</totfact>
</mgrwt>
<rwgt>
<wgt id='morphing_basis_vector_1'> +2.3227570e-04 </wgt>
<wgt id='morphing_basis_vector_2'> +1.3533027e-04 </wgt>
<wgt id='morphing_basis_vector_3'> +1.9481402e-04 </wgt>
<wgt id='morphing_basis_vector_4'> +9.4846405e-05 </wgt>
<wgt id='morphing_basis_vector_5'> +1.4634399e-04 </wgt>
</rwgt>
</event>
<event>
 4      1 +5.9529000e-06 6.44562700e+02 7.81860800e-03 9.12422700e-02
        2 -1    0    0  501    0 +0.0000000000e+00 +0.0000000000e+00 +1.0942299515e+03 1.0942299515e+03 0.0000000000e+00 0.0000e+00 -1.0000e+00
       -2 -1    0    0    0  501 -0.0000000000e+00 -0.0000000000e+00 -9.4920864802e+01 9.4920864802e+01 0.0000000000e+00 0.0000e+00 1.0000e+00
      -13  1    1    2    0    0 -1.9399201617e+02 +1.3343133486e+02 +9.3658319187e+01 2.5339436500e+02 0.0000000000e+00 0.0000e+00 1.0000e+00
       13  1    1    2    0    0 +1.9399201617e+02 -1.3343133486e+02 +9.0565076749e+02 9.3575645128e+02 0.0000000000e+00 0.0000e+00 -1.0000e+00
<mgrwt>
<rscale>  0 0.64456265E+03</rscale>
<asrwt>0</asrwt>
<pdfrwt beam="1">  1        2 0.16834306E+00 0.64456265E+03</pdfrwt>
<pdfrwt beam="2">  1       -2 0.14603211E-01 0.64456265E+03</pdfrwt>
<totfact> 0.91374211E+02</totfact>
</mgrwt>
<rwgt>
<wgt id='morphing_basis_vector_1'> +1.9882556e-04 </wgt>
<wgt id='morphing_basis_vector_2'> +1.1528070e-04 </wgt>
<wgt id='morphing_basis_vector_3'> +1.6309461e-04 </wgt>
<wgt id='morphing_basis_vector_4'> +7.5877011e-05 </wgt>
<wgt id='morphing_basis_vector_5'> +1.1653568e-04 </wgt>
</rwgt>
</event>
<event>
 4      1 +5.9529000e-06 6.32409000e+02 7.81860800e-03 9.14430800e-02
        2 -1    0    0  501    0 +0.0000000000e+00 +0.0000000000e+00 +1.1717586177e+03 1.1717586177e+03 0.0000000000e+00 0.0000e+00 -1.0000e+00
       -2 -1    0    0    0  501 -0.0000000000e+00 -0.0000000000e+00 -8.5329264471e+01 8.5329264471e+01 0.0000000000e+00 0.0000e+00 1.0000e+00
      -13  1    1    2    0    0 +2.9138014431e+02 -1.0750677740e+02 +4.2519354552e+02 5.2654500931e+02 0.0000000000e+00 0.0000e+00 1.0000e+00
       13  1    1    2    0    0 -2.9138014431e+02 +1.0750677740e+02 +6.6123580772e+02 7.3054287286e+02 0.0000000000e+00 0.0000e+00 -1.0000e+00
<mgrwt>
<rscale>  0 0.63240905E+03</rscale>
<asrwt>0</asrwt>
<pdfrwt beam="1">  1        2 0.18027055E+00 0.63240905E+03</pdfrwt>
<pdfrwt beam="2">  1       -2 0.13127580E-01 0.63240905E+03</pdfrwt>
<totfact> 0.97685000E+02</totfact>
</mgrwt>
<rwgt>
<wgt id='morphing_basis_vector_1'> +1.8952424e-04 </wgt>
<wgt id='morphing_basis_vector_2'> +1.1674895e-04 </wgt>
<wgt id='morphing_basis_vector_3'> +1.5210161e-04 </wgt>
<wgt id='morphing_basis_vector_4'> +6.6757040e-05 </wgt>
<wgt id='morphing_basis_vector_5'> +1.0601296e-04 </wgt>
</rwgt>
</event>
<event>
 4      1 +5.9529000e-06 6.64272900e+02 7.81860800e-03 9.09262600e-02
        2 -1    0    0  501    0 +0.0000000000e+00 +0.0000000000e+00 +4.6390706834e+02 4.6390706834e+02 0.0000000000e+00 0.0000e+00 -1.0000e+00
       -2 -1    0    0    0  501 -0.0000000000e+00 -0.0000000000e+00 -2.3779468398e+02 2.3779468398e+02 0.0000000000e+00 0.0000e+00 1.0000e+00
      -13  1    1    2    0    0 -6.7389132162e+01 +2.1785498403e+02 -1.4203002874e+02 2.6865334218e+02 0.0000000000e+00 0.0000e+00 1.0000e+00
       13  1    1    2    0    0 +6.7389132162e+01 -2.1785498403e+02 +3.6814241310e+02 4.3304841014e+02 0.0000000000e+00 0.0000e+00 -1.0000e+00
<mgrwt>
<rscale>  0 0.66427294E+03</rscale>
<asrwt>0</asrwt>
<pdfrwt beam="1">  1        2 0.71370318E-01 0.66427294E+03</pdfrwt>
<pdfrwt beam="2">  1       -2 0.36583798E-01 0.66427294E+03</pdfrwt>
<totfact> 0.56191920E+02</totfact>
</mgrwt>
<rwgt>
<wgt id='morphing_basis_vector_1'> +2.1987031e-04 </wgt>
<wgt id='morphing_basis_vector_2'> +1.2806495e-04 </wgt>
<wgt id='morphing_basis_vector_3'> +1.8295118e-04 </wgt>
<wgt id='morphing_basis_vector_4'> +8.7613903e-05 </wgt>
<wgt id='morphing_basis_vector_5'> +1.3509682e-04 </wgt>
</rwgt>
</event>
<event>
 4      1 +5.9529000e-06 6.41955700e+02 7.81860800e-03 9.12849500e-02
        2 -1    0    0  501    0 +0.0000000000e+00 +0.0000000000e+00 +5.7906051955e+02 5.7906051955e+02 0.0000000000e+00 0.0000e+00 1.0000e+00
       -2 -1    0    0    0  501 -0.0000000000e+00 -0.0000000000e+00 -1.7792055980e+02 1.7792055980e+02 0.0000000000e+00 0.0000e+00 -1.0000e+00
      -13  1    1    2    0    0 +2.4872667787e+02 -1.4483229614e+02 +3.3037564035e+01 2.8971164099e+02 0.0000000000e+00 0.0000e+00 -1.0000e+00
       13  1    1    2    0    0 -2.4872667787e+02 +1.4483229614e+02 +3.6810239572e+02 4.6726943836e+02 0.0000000000e+00 0.0000e+00 1.0000e+00
<mgrwt>
<rscale>  0 0.64195567E+03</rscale>
<asrwt>0</asrwt>
<pdfrwt beam="1">  1        2 0.89086233E-01 0.64195567E+03</pdfrwt>
<pdfrwt beam="2">  1       -2 0.27372394E-01 0.64195567E+03</pdfrwt>
<totfact> 0.73004624E+02</totfact>
</mgrwt>
<rwgt>
<wgt id='morphing_basis_vector_1'> +1.9698636e-04 </wgt>
<wgt id='morphing_basis_vector_2'> +1.1620438e-04 </wgt>
<wgt id='morphing_basis_vector_3'> +1.6073739e-04 </wgt>
<wgt id='morphing_basis_vector_4'> +7.3679657e-05 </wgt>
<wgt id='morphing_basis_vector_5'> +1.1421579e-04 </wgt>
</rwgt>
</event>
<event>
 4      1 +5.9529000e-06 6.74890300e+02 7.81860800e-03 9.07607500e-02
        2 -1    0    0  501    0 +0.0000000000e+00 +0.0000000000e+00 +1.2972296939e+03 1.2972296939e+03 0.0000000000e+00 0.0000e+00 1.0000e+00
       -2 -1    0    0    0  501 -0.0000000000e+00 -0.0000000000e+00 -8.7778773937e+01 8.7778773937e+01 0.0000000000e+00 0.0000e+00 -1.0000e+00
      -13  1    1    2    0    0 -4.4925073946e+01 +3.2403271320e+02 +4.3482912211e+02 5.4414320443e+02 0.0000000000e+00 0.0000e+00 -1.0000e+00
       13  1    1    2    0    0 +4.4925073946e+01 -3.2403271320e+02 +7.7462179784e+02 8.4086526340e+02 0.0000000000e+00 0.0000e+00 1.0000e+00
<mgrwt>
<rscale>  0 0.67489031E+03</rscale>
<asrwt>0</asrwt>
<pdfrwt beam="1">  1        2 0.19957378E+00 0.67489031E+03</pdfrwt>
<pdfrwt beam="2">  1       -2 0.13504428E-01 0.67489031E+03</pdfrwt>
<totfact> 0.79013874E+02</totfact>
</mgrwt>
<rwgt>
<wgt id='morphing_basis_vector_1'> +2.3487946e-04 </wgt>
<wgt id='morphing_basis_vector_2'> +1.4454446e-04 </wgt>
<wgt id='morphing_basis_vector_3'> +1.9520746e-04 </wgt>
<wgt id='morphing_basis_vector_4'> +9.1533465e-05 </wgt>
<wgt id='morphing_basis_vector_5'> +1.4585505e-04 </wgt>
</rwgt>
</event>
<event>
 4      1 +5.9529000e-06 6.32696500e+02 7.81860800e-03 9.14382800e-02
        2 -1    0    0  501    0 +0.0000000000e+00 +0.0000000000e+00 +3.5494493070e+02 3.5494493070e+02 0.0000000000e+00 0.0000e+00 -1.0000e+00
       -2 -1    0    0    0  501 -0.0000000000e+00 -0.0000000000e+00 -2.8194854158e+02 2.8194854158e+02 0.0000000000e+00 0.0000e+00 1.0000e+00
      -13  1    1    2    0    0 +2.8270565910e+02 +1.3033136384e+02 +9.3151645778e+01 3.2493996861e+02 0.0000000000e+00 0.0000e+00 1.0000e+00
       13  1    1    2    0    0 -2.8270565910e+02 -1.3033136384e+02 -2.0155256659e+01 3.1195350368e+02 0.0000000000e+00 0.0000e+00 -1.0000e+00
<mgrwt>
<rscale>  0 0.63269647E+03</rscale>
<asrwt>0</asrwt>
<pdfrwt beam="1">  1        2 0.54606912E-01 0.63269647E+03</pdfrwt>
<pdfrwt beam="2">  1       -2 0.43376699E-01 0.63269647E+03</pdfrwt>
<totfact> 0.55441985E+02</totfact>
</mgrwt>
<rwgt>
<wgt id='morphing_basis_vector_1'> +1.9860689e-04 </wgt>
<wgt id='morphing_basis_vector_2'> +1.4416506e-04 </wgt>
<wgt id='morphing_basis_vector_3'> +1.5357538e-04 </wgt>
<wgt id='morphing_basis_vector_4'> +5.9237460e-05 </wgt>
<wgt id='morphing_basis_vector_5'> +1.0619919e-04 </wgt>
</rwgt>
</event>
<event>
 4      1 +5.9529000e-06 6.25821400e+02 7.81860800e-03 9.15539300e-02
        2 -1    0    0  501    0 +0.0000000000e+00 +0.0000000000e+00 +5.7743753198e+02 5.7743753198e+02 0.0000000000e+00 0.0000e+00 -1.0000e+00
       -2 -1    0    0    0  501 -0.0000000000e+00 -0.0000000000e+00 -1.6956482435e+02 1.6956482435e+02 0.0000000000e+00 0.0000e+00 1.0000e+00
      -13  1    1    2    0    0 +1.7796511794e+02 +2.0909819831e+01 -1.0225906820e+02 2.0631461606e+02 0.0000000000e+00 0.0000e+00 1.0000e+00
       13  1    1    2    0    0 -1.7796511794e+02 -2.0909819831e+01 +5.1013177583e+02 5.4068774027e+02 0.0000000000e+00 0.0000e+00 -1.0000e+00
<mgrwt>
<rscale>  0 0.62582136E+03</rscale>
<asrwt>0</asrwt>
<pdfrwt beam="1">  1        2 0.88836542E-01 0.62582136E+03</pdfrwt>
<pdfrwt beam="2">  1       -2 0.26086896E-01 0.62582136E+03</pdfrwt>
<totfact> 0.79611774E+02</totfact>
</mgrwt>
<rwgt>
<wgt id='morphing_basis_vector_1'> +1.8009499e-04 </wgt>
<wgt id='morphing_basis_vector_2'> +1.0334078e-04 </wgt>
<wgt id='morphing_basis_vector_3'> +1.4577995e-04 </wgt>
<wgt id='morphing_basis_vector_4'> +6.6030957e-05 </wgt>
<wgt id='morphing_basis_vector_5'> +1.0062368e-04 </wgt>
</rwgt>
</event>
<event>
 4      1 +5.9529000e-06 6.55937300e+02 7.81860800e-03 9.10584800e-02
        2 -1    0    0  501    0 +0.0000000000e+00 +0.0000000000e+00 +9.4160411584e+02 9.4160411584e+02 0.0000000000e+00 0.0000e+00 -1.0000e+00
       -2 -1    0    0    0  501 -0.0000000000e+00 -0.0000000000e+00 -1.1423424763e+02 1.1423424763e+02 0.0000000000e+00 0.0000e+00 1.0000e+00
      -13  1    1    2    0    0 +1.4848491144e+02 +2.2238584275e+02 +7.1935239225e+02 7.6744452321e+02 0.0000000000e+00 0.0000e+00 1.0000e+00
       13  1    1    2    0    0 -1.4848491144e+02 -2.2238584275e+02 +1.0801747597e+02 2.8839384025e+02 0.0000000000e+00 0.0000e+00 -1.0000e+00
<mgrwt>
<rscale>  0 0.65593731E+03</rscale>
<asrwt>0</asrwt>
<pdfrwt beam="1">  1        2 0.14486217E+00 0.65593731E+03</pdfrwt>
<pdfrwt beam="2">  1       -2 0.17574500E-01 0.65593731E+03</pdfrwt>
<totfact> 0.83822329E+02</totfact>
</mgrwt>
<rwgt>
<wgt id='morphing_basis_vector_1'> +2.5602351e-04 </wgt>
<wgt id='morphing_basis_vector_2'> +2.6243126e-04 </wgt>
<wgt id='morphing_basis_vector_3'> +1.8406368e-04 </wgt>
<wgt id='morphing_basis_vector_4'> +4.0072996e-05 </wgt>
<wgt id='morphing_basis_vector_5'> +1.2639069e-04 </wgt>
</rwgt>
</event>
<event>
 4      1 +5.9529000e-06 7.11628300e+02 7.81860800e-03 9.02116500e-02
        2 -1    0    0  501    0 +0.0000000000e+00 +0.0000000000e+00 +1.4194114117e+02 1.4194114117e+02 0.0000000000e+00 0.0000e+00 1.0000e+00
       -2 -1    0    0    0  501 -0.0000000000e+00 -0.0000000000e+00 -8.9194511463e+02 8.9194511463e+02 0.0000000000e+00 0.0000e+00 -1.0000e+00
      -13  1    1    2    0    0 +1.4248993528e+02 -2.3222589178e+02 -7.0748303803e+02 7.5813224148e+02 0.0000000000e+00 0.0000e+00 -1.0000e+00
       13  1    1    2    0    0 -1.4248993528e+02 +2.3222589178e+02 -4.2520935422e+01 2.7575401432e+02 0.0000000000e+00 0.0000e+00 1.0000e+00
<mgrwt>
<rscale>  0 0.71162829E+03</rscale>
<asrwt>0</asrwt>
<pdfrwt beam="1">  1        2 0.21837099E-01 0.71162829E+03</pdfrwt>
<pdfrwt beam="2">  1       -2 0.13722232E+00 0.71162829E+03</pdfrwt>
<totfact> 0.11955425E+02</totfact>
</mgrwt>
<rwgt>
<wgt id='morphing_basis_vector_1'> +2.7820722e-04 </wgt>
<wgt id='morphing_basis_vector_2'> +1.6494477e-04 </wgt>
<wgt id='morphing_basis_vector_3'> +2.3849475e-04 </wgt>
<wgt id='morphing_basis_vector_4'> +1.2064035e-04 </wgt>
<wgt id='morphing_basis_vector_5'> +1.8806977e-04 </wgt>
</rwgt>
</event>
<event>
 4      1 +5.9529000e-06 6.50975400e+02 7.81860800e-03 9.11381700e-02
        2 -1    0    0  501    0 +0.0000000000e+00 +0.0000000000e+00 +1.0994007830e+03 1.0994007830e+03 0.0000000000e+00 0.0000e+00 -1.0000e+00
       -2 -1    0    0    0  501 -0.0000000000e+00 -0.0000000000e+00 -9.6363612034e+01 9.6363612034e+01 0.0000000000e+00 0.0000e+00 1.0000e+00
      -13  1    1    2    0    0 -2.6482377578e+02 +2.9742678284e+01 +1.5823320153e+02 3.0992580596e+02 0.0000000000e+00 0.0000e+00 1.0000e+00
       13  1    1    2    0    0 +2.6482377578e+02 -2.9742678284e+01 +8.4480396944e+02 8.8583858908e+02 0.0000000000e+00 0.0000e+00 -1.0000e+00
<mgrwt>
<rscale>  0 0.65097536E+03</rscale>
<asrwt>0</asrwt>
<pdfrwt beam="1">  1        2 0.16913857E+00 0.65097536E+03</pdfrwt>
<pdfrwt beam="2">  1       -2 0.14825172E-01 0.65097536E+03</pdfrwt>
<totfact> 0.88532196E+02</totfact>
</mgrwt>
<rwgt>
<wgt id='morphing_basis_vector_1'> +2.0580527e-04 </wgt>
<wgt id='morphing_basis_vector_2'> +1.2030399e-04 </wgt>
<wgt id='morphing_basis_vector_3'> +1.6942464e-04 </wgt>
<wgt id='morphing_basis_vector_4'> +7.9267714e-05 </wgt>
<wgt id='morphing_basis_vector_5'> +1.2235955e-04 </wgt>
</rwgt>
</event>
<event>
 4      1 +5.9529000e-06 6.86356100e+02 7.81860800e-03 9.05855500e-02
        2 -1    0    0  501    0 +0.0000000000e+00 +0.0000000000e+00 +1.2179246046e+03 1.2179246046e+03 0.0000000000e+00 0.0000e+00 -1.0000e+00
       -2 -1    0    0    0  501 -0.0000000000e+00 -0.0000000000e+00 -9.6698237909e+01 9.6698237909e+01 0.0000000000e+00 0.0000e+00 1.0000e+00
      -13  1    1    2    0    0 +2.8813095143e+02 +1.1441625761e+02 +2.7871821865e+02 4.1688652004e+02 0.0000000000e+00 0.0000e+00 1.0000e+00
       13  1    1    2    0    0 -2.8813095143e+02 -1.1441625761e+02 +8.4250814805e+02 8.9773632249e+02 0.0000000000e+00 0.0000e+00 -1.0000e+00
<mgrwt>
<rscale>  0 0.68635607E+03</rscale>
<asrwt>0</asrwt>
<pdfrwt beam="1">  1        2 0.18737300E+00 0.68635607E+03</pdfrwt>
<pdfrwt beam="2">  1       -2 0.14876653E-01 0.68635607E+03</pdfrwt>
<totfact> 0.74986570E+02</totfact>
</mgrwt>
<rwgt>
<wgt id='morphing_basis_vector_1'> +2.4686507e-04 </wgt>
<wgt id='morphing_basis_vector_2'> +1.4787136e-04 </wgt>
<wgt id='morphing_basis_vector_3'> +2.0778324e-04 </wgt>
<wgt id='morphing_basis_vector_4'> +1.0090516e-04 </wgt>
<wgt id='morphing_basis_vector_5'> +1.5823521e-04 </wgt>
</rwgt>
</event>
<event>
 4      1 +5.9529000e-06 6.96920400e+02 7.81860800e-03 9.04272500e-02
        2 -1    0    0  501    0 +0.0000000000e+00 +0.0000000000e+00 +1.0157750816e+03 1.0157750816e+03 0.0000000000e+00 0.0000e+00 1.0000e+00
       -2 -1    0    0    0  501 -0.0000000000e+00 -0.0000000000e+00 -1.1953876090e+02 1.1953876090e+02 0.0000000000e+00 0.0000e+00 -1.0000e+00
      -13  1    1    2    0    0 -2.1169317475e+02 -2.0485883744e+02 +7.5132761044e+02 8.0701568865e+02 0.0000000000e+00 0.0000e+00 1.0000e+00
       13  1    1    2    0    0 +2.1169317475e+02 +2.0485883744e+02 +1.4490871026e+02 3.2829815385e+02 0.0000000000e+00 0.0000e+00 -1.0000e+00
<mgrwt>
<rscale>  0 0.69692035E+03</rscale>
<asrwt>0</asrwt>
<pdfrwt beam="1">  1        2 0.15627308E+00 0.69692035E+03</pdfrwt>
<pdfrwt beam="2">  1       -2 0.18390579E-01 0.69692035E+03</pdfrwt>
<totfact> 0.69848818E+02</totfact>
</mgrwt>
<rwgt>
<wgt id='morphing_basis_vector_1'> +3.0863360e-04 </wgt>
<wgt id='morphing_basis_vector_2'> +3.0598329e-04 </wgt>
<wgt id='morphing_basis_vector_3'> +2.3690029e-04 </wgt>
<wgt id='morphing_basis_vector_4'> +5.7660198e-05 </wgt>
<wgt id='morphing_basis_vector_5'> +1.6896934e-04 </wgt>
</rwgt>
</event>
<event>
 4      1 +5.9529000e-06 6.66786900e+02 7.81860800e-03 9.08867800e-02
        2 -1    0    0  501    0 +0.0000000000e+00 +0.0000000000e+00 +7.3588649382e+02 7.3588649382e+02 0.0000000000e+00 0.0000e+00 -1.0000e+00
       -2 -1    0    0    0  501 -0.0000000000e+00 -0.0000000000e+00 -1.5104393639e+02 1.5104393639e+02 0.0000000000e+00 0.0000e+00 1.0000e+00
      -13  1    1    2    0    0 -4.5949458323e+01 +2.1223914777e+02 -4.4069702358e+01 2.2158282251e+02 0.0000000000e+00 0.0000e+00 1.0000e+00
       13  1    1    2    0    0 +4.5949458323e+01 -2.1223914777e+02 +6.2891225979e+02 6.6534760770e+02 0.0000000000e+00 0.0000e+00 -1.0000e+00
<mgrwt>
<rscale>  0 0.66678690E+03</rscale>
<asrwt>0</asrwt>
<pdfrwt beam="1">  1        2 0.11321331E+00 0.66678690E+03</pdfrwt>
<pdfrwt beam="2">  1       -2 0.23237529E-01 0.66678690E+03</pdfrwt>
<totfact> 0.72480194E+02</totfact>
</mgrwt>
<rwgt>
<wgt id='morphing_basis_vector_1'> +2.2263635e-04 </wgt>
<wgt id='morphing_basis_vector_2'> +1.2964741e-04 </wgt>
<wgt id='morphing_basis_vector_3'> +1.8560230e-04 </wgt>
<wgt id='morphing_basis_vector_4'> +8.9240228e-05 </wgt>
<wgt id='morphing_basis_vector_5'> +1.3760562e-04 </wgt>
</rwgt>
</event>
<event>
 4      1 +5.9529000e-06 7.05164400e+02 7.81860800e-03 9.03057300e-02
        2 -1    0    0  501    0 +0.0000000000e+00 +0.0000000000e+00 +4.2435485271e+02 4.2435485271e+02 0.0000000000e+00 0.0000e+00 -1.0000e+00
       -2 -1    0    0    0  501 -0.0000000000e+00 -0.0000000000e+00 -2.9294872424e+02 2.9294872424e+02 0.0000000000e+00 0.0000e+00 1.0000e+00
      -13  1    1    2    0    0 +2.8610819026e+02 -3.0457212279e+01 -1.4159089346e+02 3.2067665868e+02 0.0000000000e+00 0.0000e+00 1.0000e+00
       13  1    1    2    0    0 -2.8610819026e+02 +3.0457212279e+01 +2.7299702193e+02 3.9662691827e+02 0.0000000000e+00 0.0000e+00 -1.0000e+00
<mgrwt>
<rscale>  0 0.70516441E+03</rscale>
<asrwt>0</asrwt>
<pdfrwt beam="1">  1        2 0.65285362E-01 0.70516441E+03</pdfrwt>
<pdfrwt beam="2">  1       -2 0.45069034E-01 0.70516441E+03</pdfrwt>
<totfact> 0.42068119E+02</totfact>
</mgrwt>
<rwgt>
<wgt id='morphing_basis_vector_1'> +2.6987109e-04 </wgt>
<wgt id='morphing_basis_vector_2'> +1.6032578e-04 </wgt>
<wgt id='morphing_basis_vector_3'> +2.3032810e-04 </wgt>
<wgt id='morphing_basis_vector_4'> +1.1537921e-04 </wgt>
<wgt id='morphing_basis_vector_5'> +1.8008859e-04 </wgt>
</rwgt>
</event>
<event>
 4      1 +5.9529000e-06 7.11396700e+02 7.81860800e-03 9.02150100e-02
        2 -1    0    0  501    0 +0.0000000000e+00 +0.0000000000e+00 +1.3727493034e+03 1.3727493034e+03 0.0000000000e+00 0.0000e+00 -1.0000e+00
       -2 -1    0    0    0  501 -0.0000000000e+00 -0.0000000000e+00 -9.2166364917e+01 9.2166364917e+01 0.0000000000e+00 0.0000e+00 1.0000e+00
      -13  1    1    2    0    0 +2.5600708238e+02 -1.5896925600e+02 +2.5115805789e+02 3.9228971517e+02 0.0000000000e+00 0.0000e+00 1.0000e+00
       13  1    1    2    0    0 -2.5600708238e+02 +1.5896925600e+02 +1.0294248806e+03 1.0726259531e+03 0.0000000000e+00 0.0000e+00 -1.0000e+00
<mgrwt>
<rscale>  0 0.71139669E+03</rscale>
<asrwt>0</asrwt>
<pdfrwt beam="1">  1        2 0.21119219E+00 0.71139669E+03</pdfrwt>
<pdfrwt beam="2">  1       -2 0.14179442E-01 0.71139669E+03</pdfrwt>
<totfact> 0.66146511E+02</totfact>
</mgrwt>
<rwgt>
<wgt id='morphing_basis_vector_1'> +2.7838519e-04 </wgt>
<wgt id='morphing_basis_vector_2'> +1.6625632e-04 </wgt>
<wgt id='morphing_basis_vector_3'> +2.3838118e-04 </wgt>
<wgt id='morphing_basis_vector_4'> +1.1993099e-04 </wgt>
<wgt id='morphing_basis_vector_5'> +1.8776485e-04 </wgt>
</rwgt>
</event>
<event>
 4      1 +5.9529000e-06 6.80959000e+02 7.81860800e-03 9.06675700e-02
        2 -1    0    0  501    0 +0.0000000000e+00 +0.0000000000e+00 +4.4822959817e+02 4.4822959817e+02 0.0000000000e+00 0.0000e+00 -1.0000e+00
       -2 -1    0    0    0  501 -0.0000000000e+00 -0.0000000000e+00 -2.5863148149e+02 2.5863148149e+02 0.0000000000e+00 0.0000e+00 1.0000e+00
      -13  1    1    2    0    0 -2.2739573215e+01 +1.8022015980e+02 -2.0413036308e+02 2.7325006738e+02 0.0000000000e+00 0.0000e+00 1.0000e+00
       13  1    1    2    0    0 +2.2739573215e+01 -1.8022015980e+02 +3.9372847977e+02 4.3361101228e+02 0.0000000000e+00 0.0000e+00 -1.0000e+00
<mgrwt>
<rscale>  0 0.68095899E+03</rscale>
<asrwt>0</asrwt>
<pdfrwt beam="1">  1        2 0.68958400E-01 0.68095899E+03</pdfrwt>
<pdfrwt beam="2">  1       -2 0.39789459E-01 0.68095899E+03</pdfrwt>
<totfact> 0.50031025E+02</totfact>
</mgrwt>
<rwgt>
<wgt id='morphing_basis_vector_1'> +2.3895424e-04 </wgt>
<wgt id='morphing_basis_vector_2'> +1.3948903e-04 </wgt>
<wgt id='morphing_basis_vector_3'> +2.0115519e-04 </wgt>
<wgt id='morphing_basis_vector_4'> +9.8626123e-05 </wgt>
<wgt id='morphing_basis_vector_5'> +1.5236500e-04 </wgt>
</rwgt>
</event>
<event>
 4      1 +5.9529000e-06 6.27858500e+02 7.81860800e-03 9.15195000e-02
        2 -1    0    0  501    0 +0.0000000000e+00 +0.0000000000e+00 +1.3027954232e+03 1.3027954232e+03 0.0000000000e+00 0.0000e+00 -1.0000e+00
       -2 -1    0    0    0  501 -0.0000000000e+00 -0.0000000000e+00 -7.5646239855e+01 7.5646239855e+01 0.0000000000e+00 0.0000e+00 1.0000e+00
      -13  1    1    2    0    0 -7.3193431912e+00 +3.0411464769e+02 +7.8380860205e+02 8.4077060865e+02 0.0000000000e+00 0.0000e+00 1.0000e+00
       13  1    1    2    0    0 +7.3193431912e+00 -3.0411464769e+02 +4.4334058131e+02 5.3767105441e+02 0.0000000000e+00 0.0000e+00 -1.0000e+00
<mgrwt>
<rscale>  0 0.62785850E+03</rscale>
<asrwt>0</asrwt>
<pdfrwt beam="1">  1        2 0.20043005E+00 0.62785850E+03</pdfrwt>
<pdfrwt beam="2">  1       -2 0.11637884E-01 0.62785850E+03</pdfrwt>
<totfact> 0.99624298E+02</totfact>
</mgrwt>
<rwgt>
<wgt id='morphing_basis_vector_1'> +1.9664794e-04 </wgt>
<wgt id='morphing_basis_vector_2'> +1.4975767e-04 </wgt>
<wgt id='morphing_basis_vector_3'> +1.4934678e-04 </wgt>
<wgt id='morphing_basis_vector_4'> +5.4552960e-05 </wgt>
<wgt id='morphing_basis_vector_5'> +1.0220887e-04 </wgt>
</rwgt>
</event>
<event>
 4      1 +5.9529000e-06 6.26053200e+02 7.81860800e-03 9.15500000e-02
        2 -1    0    0  501    0 +0.0000000000e+00 +0.0000000000e+00 +1.7958076145e+03 1.7958076145e+03 0.0000000000e+00 0.0000e+00 1.0000e+00
       -2 -1    0    0    0  501 -0.0000000000e+00 -0.0000000000e+00 -5.4563559775e+01 5.4563559775e+01 0.0000000000e+00 0.0000e+00 -1.0000e+00
      -13  1    1    2    0    0 +2.1191479761e+02 -2.2813839944e+02 +9.6550804822e+02 1.0144756290e+03 0.0000000000e+00 0.0000e+00 1.0000e+00
       13  1    1    2    0    0 -2.1191479761e+02 +2.2813839944e+02 +7.7573600652e+02 8.3589554525e+02 0.0000000000e+00 0.0000e+00 -1.0000e+00
<mgrwt>
<rscale>  0 0.62605321E+03</rscale>
<asrwt>0</asrwt>
<pdfrwt beam="1">  1        2 0.27627805E+00 0.62605321E+03</pdfrwt>
<pdfrwt beam="2">  1       -2 0.83943952E-02 0.62605321E+03</pdfrwt>
<totfact> 0.89116682E+02</totfact>
</mgrwt>
<rwgt>
<wgt id='morphing_basis_vector_1'> +1.8913740e-04 </wgt>
<wgt id='morphing_basis_vector_2'> +1.3079286e-04 </wgt>
<wgt id='morphing_basis_vector_3'> +1.4699249e-04 </wgt>
<wgt id='morphing_basis_vector_4'> +5.8636648e-05 </wgt>
<wgt id='morphing_basis_vector_5'> +1.0077614e-04 </wgt>
</rwgt>
</event>
<event>
 4      1 +5.9529000e-06 7.12430200e+02 7.81860800e-03 9.02000500e-02
        2 -1    0    0  501    0 +0.0000000000e+00 +0.0000000000e+00 +4.0564634490e+02 4.0564634490e+02 0.0000000000e+00 0.0000e+00 1.0000e+00
       -2 -1    0    0    0  501 -0.0000000000e+00 -0.0000000000e+00 -3.1280742298e+02 3.1280742298e+02 0.0000000000e+00 0.0000e+00 -1.0000e+00
      -13  1    1    2    0    0 -8.9273371585e+01 +1.9492570250e+02 -2.4045616194e+02 3.2215668577e+02 0.0000000000e+00 0.0000e+00 -1.0000e+00
       13  1    1    2    0    0 +8.9273371585e+01 -1.9492570250e+02 +3.3329508387e+02 3.9629708212e+02 0.0000000000e+00 0.0000e+00 1.0000e+00
<mgrwt>
<rscale>  0 0.71243017E+03</rscale>
<asrwt>0</asrwt>
<pdfrwt beam="1">  1        2 0.62407130E-01 0.71243017E+03</pdfrwt>
<pdfrwt beam="2">  1       -2 0.48124219E-01 0.71243017E+03</pdfrwt>
<totfact> 0.39007776E+02</totfact>
</mgrwt>
<rwgt>
<wgt id='morphing_basis_vector_1'> +2.7891818e-04 </wgt>
<wgt id='morphing_basis_vector_2'> +1.6448646e-04 </wgt>
<wgt id='morphing_basis_vector_3'> +2.3939336e-04 </wgt>
<wgt id='morphing_basis_vector_4'> +1.2166973e-04 </wgt>
<wgt id='morphing_basis_vector_5'> +1.8908757e-04 </wgt>
</rwgt>
</event>
<event>
 4      1 +5.9529000e-06 6.50751000e+02 7.81860800e-03 9.11417900e-02
        2 -1    0    0  501    0 +0.0000000000e+00 +0.0000000000e+00 +1.3197632548e+03 1.3197632548e+03 0.0000000000e+00 0.0000e+00 1.0000e+00
       -2 -1    0    0    0  501 -0.0000000000e+00 -0.0000000000e+00 -8.0218331730e+01 8.0218331730e+01 0.0000000000e+00 0.0000e+00 -1.0000e+00
      -13  1    1    2    0    0 +5.5118757700e+01 +3.2058984098e+02 +6.0406876846e+02 6.8608672966e+02 0.0000000000e+00 0.0000e+00 1.0000e+00
       13  1    1    2    0    0 -5.5118757700e+01 -3.2058984098e+02 +6.3547615464e+02 7.1389485690e+02 0.0000000000e+00 0.0000e+00 -1.0000e+00
<mgrwt>
<rscale>  0 0.65075097E+03</rscale>
<asrwt>0</asrwt>
<pdfrwt beam="1">  1        2 0.20304048E+00 0.65075097E+03</pdfrwt>
<pdfrwt beam="2">  1       -2 0.12341283E-01 0.65075097E+03</pdfrwt>
<totfact> 0.88713010E+02</totfact>
</mgrwt>
<rwgt>
<wgt id='morphing_basis_vector_1'> +2.1150531e-04 </wgt>
<wgt id='morphing_basis_vector_2'> +1.3851602e-04 </wgt>
<wgt id='morphing_basis_vector_3'> +1.7037756e-04 </wgt>
<wgt id='morphing_basis_vector_4'> +7.3657630e-05 </wgt>
<wgt id='morphing_basis_vector_5'> +1.2208078e-04 </wgt>
</rwgt>
</event>
<event>
 4      1 +5.9529000e-06 6.28000000e+02 7.81860800e-03 9.15171100e-02
        2 -1    0    0  501    0 +0.0000000000e+00 +0.0000000000e+00 +3.4669977189e+02 3.4669977189e+02 0.0000000000e+00 0.0000e+00 -1.0000e+00
       -2 -1    0    0    0  501 -0.0000000000e+00 -0.0000000000e+00 -2.8438439186e+02 2.8438439186e+02 0.0000000000e+00 0.0000e+00 1.0000e+00
      -13  1    1    2    0    0 +2.5732631205e+02 -1.0572818096e+02 -1.1516207099e+02 3.0109397489e+02 0.0000000000e+00 0.0000e+00 1.0000e+00
       13  1    1    2    0    0 -2.5732631205e+02 +1.0572818096e+02 +1.7747745103e+02 3.2999018886e+02 0.0000000000e+00 0.0000e+00 -1.0000e+00
<mgrwt>
<rscale>  0 0.62800001E+03</rscale>
<asrwt>0</asrwt>
<pdfrwt beam="1">  1        2 0.53338427E-01 0.62800001E+03</pdfrwt>
<pdfrwt beam="2">  1       -2 0.43751445E-01 0.62800001E+03</pdfrwt>
<totfact> 0.56011771E+02</totfact>
</mgrwt>
<rwgt>
<wgt id='morphing_basis_vector_1'> +1.8302067e-04 </wgt>
<wgt id='morphing_basis_vector_2'> +1.0722677e-04 </wgt>
<wgt id='morphing_basis_vector_3'> +1.4781376e-04 </wgt>
<wgt id='morphing_basis_vector_4'> +6.6419143e-05 </wgt>
<wgt id='morphing_basis_vector_5'> +1.0238638e-04 </wgt>
</rwgt>
</event>
<event>
 4      1 +5.9529000e-06 6.75246500e+02 7.81860800e-03 9.07552500e-02
        2 -1    0    0  501    0 +0.0000000000e+00 +0.0000000000e+00 +1.3701516286e+02 1.3701516286e+02 0.0000000000e+00 0.0000e+00 -1.0000e+00
       -2 -1    0    0    0  501 -0.0000000000e+00 -0.0000000000e+00 -8.3194773627e+02 8.3194773627e+02 0.0000000000e+00 0.0000e+00 1.0000e+00
      -13  1    1    2    0    0 +2.8659995668e+02 -1.1137862713e+02 -5.4756563362e+02 6.2799112802e+02 0.0000000000e+00 0.0000e+00 1.0000e+00
       13  1    1    2    0    0 -2.8659995668e+02 +1.1137862713e+02 -1.4736693979e+02 3.4097177111e+02 0.0000000000e+00 0.0000e+00 -1.0000e+00
<mgrwt>
<rscale>  0 0.67524649E+03</rscale>
<asrwt>0</asrwt>
<pdfrwt beam="1">  1        2 0.21079255E-01 0.67524649E+03</pdfrwt>
<pdfrwt beam="2">  1       -2 0.12799196E+00 0.67524649E+03</pdfrwt>
<totfact> 0.15072918E+02</totfact>
</mgrwt>
<rwgt>
<wgt id='morphing_basis_vector_1'> +2.3366647e-04 </wgt>
<wgt id='morphing_basis_vector_2'> +1.3977569e-04 </wgt>
<wgt id='morphing_basis_vector_3'> +1.9515588e-04 </wgt>
<wgt id='morphing_basis_vector_4'> +9.3375293e-05 </wgt>
<wgt id='morphing_basis_vector_5'> +1.4626001e-04 </wgt>
</rwgt>
</event>
<event>
 4      1 +5.9529000e-06 6.59486500e+02 7.81860800e-03 9.10019300e-02
        2 -1    0    0  501    0 +0.0000000000e+00 +0.0000000000e+00 +2.6383346165e+02 2.6383346165e+02 0.0000000000e+00 0.0000e+00 -1.0000e+00
       -2 -1    0    0    0  501 -0.0000000000e+00 -0.0000000000e+00 -4.1211830147e+02 4.1211830147e+02 0.0000000000e+00 0.0000e+00 1.0000e+00
      -13  1    1    2    0    0 +9.8676441376e+01 -2.9276458270e+02 +4.3984541392e+01 3.1206214261e+02 0.0000000000e+00 0.0000e+00 1.0000e+00
       13  1    1    2    0    0 -9.8676441376e+01 +2.9276458270e+02 -1.9226938121e+02 3.6388962051e+02 0.0000000000e+00 0.0000e+00 -1.0000e+00
<mgrwt>
<rscale>  0 0.65948646E+03</rscale>
<asrwt>0</asrwt>
<pdfrwt beam="1">  1        2 0.40589763E-01 0.65948646E+03</pdfrwt>
<pdfrwt beam="2">  1       -2 0.63402815E-01 0.65948646E+03</pdfrwt>
<totfact> 0.36510854E+02</totfact>
</mgrwt>
<rwgt>
<wgt id='morphing_basis_vector_1'> +2.3858272e-04 </wgt>
<wgt id='morphing_basis_vector_2'> +1.9896740e-04 </wgt>
<wgt id='morphing_basis_vector_3'> +1.8339208e-04 </wgt>
<wgt id='morphing_basis_vector_4'> +6.1938688e-05 </wgt>
<wgt id='morphing_basis_vector_5'> +1.3005503e-04 </wgt>
</rwgt>
</event>
<event>
 4      1 +5.9529000e-06 6.22788800e+02 7.81860800e-03 9.16054400e-02
        2 -1    0    0  501    0 +0.0000000000e+00 +0.0000000000e+00 +2.0589825937e+02 2.0589825937e+02 0.0000000000e+00 0.0000e+00 1.0000e+00
       -2 -1    0    0    0  501 -0.0000000000e+00 -0.0000000000e+00 -4.7094358243e+02 4.7094358243e+02 0.0000000000e+00 0.0000e+00 -1.0000e+00
      -13  1    1    2    0    0 +2.9571647690e+02 +9.6986786200e+01 -1.2103179684e+02 3.3392119917e+02 0.0000000000e+00 0.0000e+00 -1.0000e+00
       13  1    1    2    0    0 -2.9571647690e+02 -9.6986786200e+01 -1.4401352622e+02 3.4292064263e+02 0.0000000000e+00 0.0000e+00 1.0000e+00
<mgrwt>
<rscale>  0 0.62278877E+03</rscale>
<asrwt>0</asrwt>
<pdfrwt beam="1">  1        2 0.31676656E-01 0.62278877E+03</pdfrwt>
<pdfrwt beam="2">  1       -2 0.72452858E-01 0.62278877E+03</pdfrwt>
<totfact> 0.36578857E+02</totfact>
</mgrwt>
<rwgt>
<wgt id='morphing_basis_vector_1'> +1.8401615e-04 </wgt>
<wgt id='morphing_basis_vector_2'> +1.2260994e-04 </wgt>
<wgt id='morphing_basis_vector_3'> +1.4382162e-04 </wgt>
<wgt id='morphing_basis_vector_4'> +5.8793217e-05 </wgt>
<wgt id='morphing_basis_vector_5'> +9.8181242e-05 </wgt>
</rwgt>
</event>
<event>
 4      1 +5.9529000e-06 6.23152800e+02 7.81860800e-03 9.15992400e-02
        2 -1    0    0  501    0 +0.0000000000e+00 +0.0000000000e+00 +9.6600556645e+02 9.6600556645e+02 0.0000000000e+00 0.0000e+00 1.0000e+00
       -2 -1    0    0    0  501 -0.0000000000e+00 -0.0000000000e+00 -1.0049616346e+02 1.0049616346e+02 0.0000000000e+00 0.0000e+00 -1.0000e+00
      -13  1    1    2    0    0 +1.9505654373e+01 -1.8145166362e+02 +5.4834968863e-01 1.8249788347e+02 0.0000000000e+00 0.0000e+00 -1.0000e+00
       13  1    1    2    0    0 -1.9505654373e+01 +1.8145166362e+02 +8.6496105330e+02 8.8400384644e+02 0.0000000000e+00 0.0000e+00 1.0000e+00
<mgrwt>
<rscale>  0 0.62315280E+03</rscale>
<asrwt>0</asrwt>
<pdfrwt beam="1">  1        2 0.14861623E+00 0.62315280E+03</pdfrwt>
<pdfrwt beam="2">  1       -2 0.15460949E-01 0.62315280E+03</pdfrwt>
<totfact> 0.99780334E+02</totfact>
</mgrwt>
<rwgt>
<wgt id='morphing_basis_vector_1'> +1.7758008e-04 </wgt>
<wgt id='morphing_basis_vector_2'> +1.0182619e-04 </wgt>
<wgt id='morphing_basis_vector_3'> +1.4344201e-04 </wgt>
<wgt id='morphing_basis_vector_4'> +6.4680028e-05 </wgt>
<wgt id='morphing_basis_vector_5'> +9.8489033e-05 </wgt>
</rwgt>
</event>
<event>
 4      1 +5.9529000e-06 6.87509200e+02 7.81860800e-03 9.05681300e-02
        2 -1    0    0  501    0 +0.0000000000e+00 +0.0000000000e+00 +3.7498872573e+02 3.7498872573e+02 0.0000000000e+00 0.0000e+00 1.0000e+00
       -2 -1    0    0    0  501 -0.0000000000e+00 -0.0000000000e+00 -3.1512207188e+02 3.1512207188e+02 0.0000000000e+00 0.0000e+00 -1.0000e+00
      -13  1    1    2    0    0 -2.6423593717e+02 +4.8167721931e+01 -1.8541629658e+02 3.2637396183e+02 0.0000000000e+00 0.0000e+00 -1.0000e+00
       13  1    1    2    0    0 +2.6423593717e+02 -4.8167721931e+01 +2.4528295044e+02 3.6373683578e+02 0.0000000000e+00 0.0000e+00 1.0000e+00
<mgrwt>
<rscale>  0 0.68750920E+03</rscale>
<asrwt>0</asrwt>
<pdfrwt beam="1">  1        2 0.57690573E-01 0.68750920E+03</pdfrwt>
<pdfrwt beam="2">  1       -2 0.48480319E-01 0.68750920E+03</pdfrwt>
<totfact> 0.42056291E+02</totfact>
</mgrwt>
<rwgt>
<wgt id='morphing_basis_vector_1'> +2.4729834e-04 </wgt>
<wgt id='morphing_basis_vector_2'> +1.4574055e-04 </wgt>
<wgt id='morphing_basis_vector_3'> +2.0882590e-04 </wgt>
<wgt id='morphing_basis_vector_4'> +1.0270118e-04 </wgt>
<wgt id='morphing_basis_vector_5'> +1.5953950e-04 </wgt>
</rwgt>
</event>
<event>
 4      1 +5.9529000e-06 7.32176100e+02 7.81860800e-03 8.99193700e-02
        2 -1    0    0  501    0 +0.0000000000e+00 +0.0000000000e+00 +3.7627293999e+02 3.7627293999e+02 0.0000000000e+00 0.0000e+00 1.0000e+00
       -2 -1    0    0    0  501 -0.0000000000e+00 -0.0000000000e+00 -3.5617880971e+02 3.5617880971e+02 0.0000000000e+00 0.0000e+00 -1.0000e+00
      -13  1    1    2    0    0 +2.4147007371e+02 +6.3811305545e+00 -2.6514183050e+02 3.5867632429e+02 0.0000000000e+00 0.0000e+00 -1.0000e+00
       13  1    1    2    0    0 -2.4147007371e+02 -6.3811305545e+00 +2.8523596077e+02 3.7377542541e+02 0.0000000000e+00 0.0000e+00 1.0000e+00
<mgrwt>
<rscale>  0 0.73217607E+03</rscale>
<asrwt>0</asrwt>
<pdfrwt beam="1">  1        2 0.57888144E-01 0.73217607E+03</pdfrwt>
<pdfrwt beam="2">  1       -2 0.54796740E-01 0.73217607E+03</pdfrwt>
<totfact> 0.32864023E+02</totfact>
</mgrwt>
<rwgt>
<wgt id='morphing_basis_vector_1'> +3.0662487e-04 </wgt>
<wgt id='morphing_basis_vector_2'> +1.8205034e-04 </wgt>
<wgt id='morphing_basis_vector_3'> +2.6612990e-04 </wgt>
<wgt id='morphing_basis_vector_4'> +1.3792326e-04 </wgt>
<wgt id='morphing_basis_vector_5'> +2.1509884e-04 </wgt>
</rwgt>
</event>
<event>
 4      1 +5.9529000e-06 6.87030100e+02 7.81860800e-03 9.05753600e-02
        2 -1    0    0  501    0 +0.0000000000e+00 +0.0000000000e+00 +6.1846156453e+02 6.1846156453e+02 0.0000000000e+00 0.0000e+00 1.0000e+00
       -2 -1    0    0    0  501 -0.0000000000e+00 -0.0000000000e+00 -1.9080017388e+02 1.9080017388e+02 0.0000000000e+00 0.0000e+00 -1.0000e+00
      -13  1    1    2    0    0 -1.8309743035e+02 +1.7817365094e+02 -5.6658934992e+01 2.6168827602e+02 0.0000000000e+00 0.0000e+00 -1.0000e+00
       13  1    1    2    0    0 +1.8309743035e+02 -1.7817365094e+02 +4.8432032564e+02 5.4757346240e+02 0.0000000000e+00 0.0000e+00 1.0000e+00
<mgrwt>
<rscale>  0 0.68703005E+03</rscale>
<asrwt>0</asrwt>
<pdfrwt beam="1">  1        2 0.95147932E-01 0.68703005E+03</pdfrwt>
<pdfrwt beam="2">  1       -2 0.29353873E-01 0.68703005E+03</pdfrwt>
<totfact> 0.59752096E+02</totfact>
</mgrwt>
<rwgt>
<wgt id='morphing_basis_vector_1'> +2.4658038e-04 </wgt>
<wgt id='morphing_basis_vector_2'> +1.4496821e-04 </wgt>
<wgt id='morphing_basis_vector_3'> +2.0822562e-04 </wgt>
<wgt id='morphing_basis_vector_4'> +1.0250118e-04 </wgt>
<wgt id='morphing_basis_vector_5'> +1.5900914e-04 </wgt>
</rwgt>
</event>
<event>
 4      1 +5.9529000e-06 6.92750900e+02 7.81860800e-03 9.04893700e-02
        2 -1    0    0  501    0 +0.0000000000e+00 +0.0000000000e+00 +7.9257439159e+02 7.9257439159e+02 0.0000000000e+00 0.0000e+00 1.0000e+00
       -2 -1    0    0    0  501 -0.0000000000e+00 -0.0000000000e+00 -1.5137500373e+02 1.5137500373e+02 0.0000000000e+00 0.0000e+00 -1.0000e+00
      -13  1    1    2    0    0 +1.1726413456e+02 +3.2204590070e+02 +3.8888688532e+02 5.1836034666e+02 0.0000000000e+00 0.0000e+00 -1.0000e+00
       13  1    1    2    0    0 -1.1726413456e+02 -3.2204590070e+02 +2.5231250254e+02 4.2558904867e+02 0.0000000000e+00 0.0000e+00 1.0000e+00
<mgrwt>
<rscale>  0 0.69275090E+03</rscale>
<asrwt>0</asrwt>
<pdfrwt beam="1">  1        2 0.12193452E+00 0.69275090E+03</pdfrwt>
<pdfrwt beam="2">  1       -2 0.23288463E-01 0.69275090E+03</pdfrwt>
<totfact> 0.65743677E+02</totfact>
</mgrwt>
<rwgt>
<wgt id='morphing_basis_vector_1'> +2.6789412e-04 </wgt>
<wgt id='morphing_basis_vector_2'> +1.9330645e-04 </wgt>
<wgt id='morphing_basis_vector_3'> +2.1964509e-04 </wgt>
<wgt id='morphing_basis_vector_4'> +9.1826294e-05 </wgt>
<wgt id='morphing_basis_vector_5'> +1.6510403e-04 </wgt>
</rwgt>
</event>
<event>
 4      1 +5.9529000e-06 6.54374600e+02 7.81860800e-03 9.10835000e-02
        2 -1    0    0  501    0 +0.0000000000e+00 +0.0000000000e+00 +3.3171756858e+02 3.3171756858e+02 0.0000000000e+00 0.0000e+00 -1.0000e+00
       -2 -1    0    0    0  501 -0.0000000000e+00 -0.0000000000e+00 -3.2271885789e+02 3.2271885789e+02 0.0000000000e+00 0.0000e+00 1.0000e+00
      -13  1    1    2    0    0 -4.2907095291e+01 +4.2991414133e+01 -3.1703101785e+02 3.2279706752e+02 0.0000000000e+00 0.0000e+00 1.0000e+00
       13  1    1    2    0    0 +4.2907095291e+01 -4.2991414133e+01 +3.2602972854e+02 3.3163935895e+02 0.0000000000e+00 0.0000e+00 -1.0000e+00
<mgrwt>
<rscale>  0 0.65437456E+03</rscale>
<asrwt>0</asrwt>
<pdfrwt beam="1">  1        2 0.51033472E-01 0.65437456E+03</pdfrwt>
<pdfrwt beam="2">  1       -2 0.49649055E-01 0.65437456E+03</pdfrwt>
<totfact> 0.46135824E+02</totfact>
</mgrwt>
<rwgt>
<wgt id='morphing_basis_vector_1'> +2.0885178e-04 </wgt>
<wgt id='morphing_basis_vector_2'> +1.2077138e-04 </wgt>
<wgt id='morphing_basis_vector_3'> +1.7270819e-04 </wgt>
<wgt id='morphing_basis_vector_4'> +8.1788806e-05 </wgt>
<wgt id='morphing_basis_vector_5'> +1.2553735e-04 </wgt>
</rwgt>
</event>
<event>
 4      1 +5.9529000e-06 6.32790000e+02 7.81860800e-03 9.14367200e-02
        2 -1    0    0  501    0 +0.0000000000e+00 +0.0000000000e+00 +5.9670214211e+02 5.9670214211e+02 0.0000000000e+00 0.0000e+00 -1.0000e+00
       -2 -1    0    0    0  501 -0.0000000000e+00 -0.0000000000e+00 -1.6776509909e+02 1.6776509909e+02 0.0000000000e+00 0.0000e+00 1.0000e+00
      -13  1    1    2    0    0 +4.2153926472e+01 -2.4548942977e+02 -2.1229119651e+01 2.4998537790e+02 0.0000000000e+00 0.0000e+00 1.0000e+00
       13  1    1    2    0    0 -4.2153926472e+01 +2.4548942977e+02 +4.5016616267e+02 5.1448186329e+02 0.0000000000e+00 0.0000e+00 -1.0000e+00
<mgrwt>
<rscale>  0 0.63278999E+03</rscale>
<asrwt>0</asrwt>
<pdfrwt beam="1">  1        2 0.91800328E-01 0.63278999E+03</pdfrwt>
<pdfrwt beam="2">  1       -2 0.25810016E-01 0.63278999E+03</pdfrwt>
<totfact> 0.78026548E+02</totfact>
</mgrwt>
<rwgt>
<wgt id='morphing_basis_vector_1'> +1.8714460e-04 </wgt>
<wgt id='morphing_basis_vector_2'> +1.0845712e-04 </wgt>
<wgt id='morphing_basis_vector_3'> +1.5207363e-04 </wgt>
<wgt id='morphing_basis_vector_4'> +6.9353070e-05 </wgt>
<wgt id='morphing_basis_vector_5'> +1.0634832e-04 </wgt>
</rwgt>
</event>
<event>
 4      1 +5.9529000e-06 6.35811900e+02 7.81860800e-03 9.13863800e-02
        2 -1    0    0  501    0 +0.0000000000e+00 +0.0000000000e+00 +6.5673811598e+02 6.5673811598e+02 0.0000000000e+00 0.0000e+00 1.0000e+00
       -2 -1    0    0    0  501 -0.0000000000e+00 -0.0000000000e+00 -1.5388809856e+02 1.5388809856e+02 0.0000000000e+00 0.0000e+00 -1.0000e+00
      -13  1    1    2    0    0 -1.9817410155e+02 -9.3752576792e+01 -4.2094353554e+01 2.2323632048e+02 0.0000000000e+00 0.0000e+00 -1.0000e+00
       13  1    1    2    0    0 +1.9817410155e+02 +9.3752576792e+01 +5.4494437098e+02 5.8738989406e+02 0.0000000000e+00 0.0000e+00 1.0000e+00
<mgrwt>
<rscale>  0 0.63581186E+03</rscale>
<asrwt>0</asrwt>
<pdfrwt beam="1">  1        2 0.10103663E+00 0.63581186E+03</pdfrwt>
<pdfrwt beam="2">  1       -2 0.23675093E-01 0.63581186E+03</pdfrwt>
<totfact> 0.80711612E+02</totfact>
</mgrwt>
<rwgt>
<wgt id='morphing_basis_vector_1'> +1.8990881e-04 </wgt>
<wgt id='morphing_basis_vector_2'> +1.0961857e-04 </wgt>
<wgt id='morphing_basis_vector_3'> +1.5481957e-04 </wgt>
<wgt id='morphing_basis_vector_4'> +7.1145313e-05 </wgt>
<wgt id='morphing_basis_vector_5'> +1.0890230e-04 </wgt>
</rwgt>
</event>
<event>
 4      1 +5.9529000e-06 7.38324700e+02 7.81860800e-03 8.98338800e-02
        2 -1    0    0  501    0 +0.0000000000e+00 +0.0000000000e+00 +5.6380417843e+02 5.6380417843e+02 0.0000000000e+00 0.0000e+00 1.0000e+00
       -2 -1    0    0    0  501 -0.0000000000e+00 -0.0000000000e+00 -2.4171661956e+02 2.4171661956e+02 0.0000000000e+00 0.0000e+00 -1.0000e+00
      -13  1    1    2    0    0 +1.8812933823e+02 +2.5728628702e+02 -4.2165610401e+01 3.2150710737e+02 0.0000000000e+00 0.0000e+00 -1.0000e+00
       13  1    1    2    0    0 -1.8812933823e+02 -2.5728628702e+02 +3.6425316927e+02 4.8401369062e+02 0.0000000000e+00 0.0000e+00 1.0000e+00
<mgrwt>
<rscale>  0 0.73832470E+03</rscale>
<asrwt>0</asrwt>
<pdfrwt beam="1">  1        2 0.86739104E-01 0.73832470E+03</pdfrwt>
<pdfrwt beam="2">  1       -2 0.37187172E-01 0.73832470E+03</pdfrwt>
<totfact> 0.43518108E+02</totfact>
</mgrwt>
<rwgt>
<wgt id='morphing_basis_vector_1'> +3.1671465e-04 </wgt>
<wgt id='morphing_basis_vector_2'> +1.9098704e-04 </wgt>
<wgt id='morphing_basis_vector_3'> +2.7537614e-04 </wgt>
<wgt id='morphing_basis_vector_4'> +1.4211282e-04 </wgt>
<wgt id='morphing_basis_vector_5'> +2.2365373e-04 </wgt>
</rwgt>
</event>
<event>
 4      1 +5.9529000e-06 6.51477800e+02 7.81860800e-03 9.11300700e-02
        2 -1    0    0  501    0 +0.0000000000e+00 +0.0000000000e+00 +6.8315796869e+02 6.8315796869e+02 0.0000000000e+00 0.0000e+00 -1.0000e+00
       -2 -1    0    0    0  501 -0.0000000000e+00 -0.0000000000e+00 -1.5531669950e+02 1.5531669950e+02 0.0000000000e+00 0.0000e+00 1.0000e+00
      -13  1    1    2    0    0 -1.9424393187e+02 -2.4884492489e+02 +1.6054570091e+02 3.5416016687e+02 0.0000000000e+00 0.0000e+00 1.0000e+00
       13  1    1    2    0    0 +1.9424393187e+02 +2.4884492489e+02 +3.6729556828e+02 4.8431450132e+02 0.0000000000e+00 0.0000e+00 -1.0000e+00
<mgrwt>
<rscale>  0 0.65147783E+03</rscale>
<asrwt>0</asrwt>
<pdfrwt beam="1">  1        2 0.10510122E+00 0.65147783E+03</pdfrwt>
<pdfrwt beam="2">  1       -2 0.23894877E-01 0.65147783E+03</pdfrwt>
<totfact> 0.75749071E+02</totfact>
</mgrwt>
<rwgt>
<wgt id='morphing_basis_vector_1'> +2.0852300e-04 </wgt>
<wgt id='morphing_basis_vector_2'> +1.2739155e-04 </wgt>
<wgt id='morphing_basis_vector_3'> +1.7036255e-04 </wgt>
<wgt id='morphing_basis_vector_4'> +7.7537048e-05 </wgt>
<wgt id='morphing_basis_vector_5'> +1.2279775e-04 </wgt>
</rwgt>
</event>
<event>
 4      1 +5.9529000e-06 6.31605100e+02 7.81860800e-03 9.14565400e-02
        2 -1    0    0  501    0 +0.0000000000e+00 +0.0000000000e+00 +1.1928624309e+03 1.1928624309e+03 0.0000000000e+00 0.0000e+00 -1.0000e+00
       -2 -1    0    0    0  501 -0.0000000000e+00 -0.0000000000e+00 -8.3606675395e+01 8.3606675395e+01 0.0000000000e+00 0.0000e+00 1.0000e+00
      -13  1    1    2    0    0 +2.3792622691e+02 +7.1824498319e+01 +1.6085261506e+02 2.9604258441e+02 0.0000000000e+00 0.0000e+00 1.0000e+00
       13  1    1    2    0    0 -2.3792622691e+02 -7.1824498319e+01 +9.4840314049e+02 9.8042652193e+02 0.0000000000e+00 0.0000e+00 -1.0000e+00
<mgrwt>
<rscale>  0 0.63160514E+03</rscale>
<asrwt>0</asrwt>
<pdfrwt beam="1">  1        2 0.18351728E+00 0.63160514E+03</pdfrwt>
<pdfrwt beam="2">  1       -2 0.12862566E-01 0.63160514E+03</pdfrwt>
<totfact> 0.98129090E+02</totfact>
</mgrwt>
<rwgt>
<wgt id='morphing_basis_vector_1'> +1.8598450e-04 </wgt>
<wgt id='morphing_basis_vector_2'> +1.0774061e-04 </wgt>
<wgt id='morphing_basis_vector_3'> +1.5099488e-04 </wgt>
<wgt id='morphing_basis_vector_4'> +6.8733744e-05 </wgt>
<wgt id='morphing_basis_vector_5'> +1.0535909e-04 </wgt>
</rwgt>
</event>
<event>
 4      1 +5.9529000e-06 6.36284300e+02 7.81860800e-03 9.13785400e-02
        2 -1    0    0  501    0 +0.0000000000e+00 +0.0000000000e+00 +9.5641589810e+02 9.5641589810e+02 0.0000000000e+00 0.0000e+00 -1.0000e+00
       -2 -1    0    0    0  501 -0.0000000000e+00 -0.0000000000e+00 -1.0582679391e+02 1.0582679391e+02 0.0000000000e+00 0.0000e+00 1.0000e+00
      -13  1    1    2    0    0 -2.3625972222e+02 -2.0997393434e+02 +4.8564265135e+02 5.7944498812e+02 0.0000000000e+00 0.0000e+00 1.0000e+00
       13  1    1    2    0    0 +2.3625972222e+02 +2.0997393434e+02 +3.6494645284e+02 4.8279770390e+02 0.0000000000e+00 0.0000e+00 -1.0000e+00
<mgrwt>
<rscale>  0 0.63628430E+03</rscale>
<asrwt>0</asrwt>
<pdfrwt beam="1">  1        2 0.14714090E+00 0.63628430E+03</pdfrwt>
<pdfrwt beam="2">  1       -2 0.16281046E-01 0.63628430E+03</pdfrwt>
<totfact> 0.93003404E+02</totfact>
</mgrwt>
<rwgt>
<wgt id='morphing_basis_vector_1'> +1.9996195e-04 </wgt>
<wgt id='morphing_basis_vector_2'> +1.3956668e-04 </wgt>
<wgt id='morphing_basis_vector_3'> +1.5669148e-04 </wgt>
<wgt id='morphing_basis_vector_4'> +6.2947880e-05 </wgt>
<wgt id='morphing_basis_vector_5'> +1.0923510e-04 </wgt>
</rwgt>
</event>
<event>
 4      1 +5.9529000e-06 7.14377600e+02 7.81860800e-03 9.01719500e-02
        2 -1    0    0  501    0 +0.0000000000e+00 +0.0000000000e+00 +4.5595025929e+02 4.5595025929e+02 0.0000000000e+00 0.0000e+00 1.0000e+00
       -2 -1    0    0    0  501 -0.0000000000e+00 -0.0000000000e+00 -2.7981964875e+02 2.7981964875e+02 0.0000000000e+00 0.0000e+00 -1.0000e+00
      -13  1    1    2    0    0 +7.7880000319e+01 -6.7542927111e+01 -2.6416471733e+02 2.8356716900e+02 0.0000000000e+00 0.0000e+00 -1.0000e+00
       13  1    1    2    0    0 -7.7880000319e+01 +6.7542927111e+01 +4.4029532787e+02 4.5220273904e+02 0.0000000000e+00 0.0000e+00 1.0000e+00
<mgrwt>
<rscale>  0 0.71437761E+03</rscale>
<asrwt>0</asrwt>
<pdfrwt beam="1">  1        2 0.70146194E-01 0.71437761E+03</pdfrwt>
<pdfrwt beam="2">  1       -2 0.43049177E-01 0.71437761E+03</pdfrwt>
<totfact> 0.42304526E+02</totfact>
</mgrwt>
<rwgt>
<wgt id='morphing_basis_vector_1'> +2.8142054e-04 </wgt>
<wgt id='morphing_basis_vector_2'> +1.6572948e-04 </wgt>
<wgt id='morphing_basis_vector_3'> +2.4187969e-04 </wgt>
<wgt id='morphing_basis_vector_4'> +1.2335832e-04 </wgt>
<wgt id='morphing_basis_vector_5'> +1.9155207e-04 </wgt>
</rwgt>
</event>
<event>
 4      1 +5.9529000e-06 6.72923600e+02 7.81860800e-03 9.07911700e-02
        2 -1    0    0  501    0 +0.0000000000e+00 +0.0000000000e+00 +2.3798919896e+02 2.3798919896e+02 0.0000000000e+00 0.0000e+00 1.0000e+00
       -2 -1    0    0    0  501 -0.0000000000e+00 -0.0000000000e+00 -4.7567933637e+02 4.7567933637e+02 0.0000000000e+00 0.0000e+00 -1.0000e+00
      -13  1    1    2    0    0 -2.4124536359e+02 +1.5760380479e+02 -3.0305197762e+02 4.1818510958e+02 0.0000000000e+00 0.0000e+00 -1.0000e+00
       13  1    1    2    0    0 +2.4124536359e+02 -1.5760380479e+02 +6.5361840208e+01 2.9548342575e+02 0.0000000000e+00 0.0000e+00 1.0000e+00
<mgrwt>
<rscale>  0 0.67292360E+03</rscale>
<asrwt>0</asrwt>
<pdfrwt beam="1">  1        2 0.36613723E-01 0.67292360E+03</pdfrwt>
<pdfrwt beam="2">  1       -2 0.73181436E-01 0.67292360E+03</pdfrwt>
<totfact> 0.30282915E+02</totfact>
</mgrwt>
<rwgt>
<wgt id='morphing_basis_vector_1'> +2.3035326e-04 </wgt>
<wgt id='morphing_basis_vector_2'> +1.3619623e-04 </wgt>
<wgt id='morphing_basis_vector_3'> +1.9242373e-04 </wgt>
<wgt id='morphing_basis_vector_4'> +9.2469726e-05 </wgt>
<wgt id='morphing_basis_vector_5'> +1.4385172e-04 </wgt>
</rwgt>
</event>
<event>
 4      1 +5.9529000e-06 6.75738400e+02 7.81860800e-03 9.07476700e-02
        2 -1    0    0  501    0 +0.0000000000e+00 +0.0000000000e+00 +1.3372250158e+03 1.3372250158e+03 0.0000000000e+00 0.0000e+00 1.0000e+00
       -2 -1    0    0    0  501 -0.0000000000e+00 -0.0000000000e+00 -8.5367521994e+01 8.5367521994e+01 0.0000000000e+00 0.0000e+00 -1.0000e+00
      -13  1    1    2    0    0 +1.2408085283e+02 +1.9422668696e+02 +1.0582105293e+02 2.5361025060e+02 0.0000000000e+00 0.0000e+00 -1.0000e+00
       13  1    1    2    0    0 -1.2408085283e+02 -1.9422668696e+02 +1.1460364409e+03 1.1689822872e+03 0.0000000000e+00 0.0000e+00 1.0000e+00
<mgrwt>
<rscale>  0 0.67573837E+03</rscale>
<asrwt>0</asrwt>
<pdfrwt beam="1">  1        2 0.20572691E+00 0.67573837E+03</pdfrwt>
<pdfrwt beam="2">  1       -2 0.13133466E-01 0.67573837E+03</pdfrwt>
<totfact> 0.78446361E+02</totfact>
</mgrwt>
<rwgt>
<wgt id='morphing_basis_vector_1'> +2.3294979e-04 </wgt>
<wgt id='morphing_basis_vector_2'> +1.3614713e-04 </wgt>
<wgt id='morphing_basis_vector_3'> +1.9534511e-04 </wgt>
<wgt id='morphing_basis_vector_4'> +9.4976223e-05 </wgt>
<wgt id='morphing_basis_vector_5'> +1.4680188e-04 </wgt>
</rwgt>
</event>
<event>
 4      1 +5.9529000e-06 6.99673100e+02 7.81860800e-03 9.03864800e-02
        2 -1    0    0  501    0 +0.0000000000e+00 +0.0000000000e+00 +3.9930863200e+02 3.9930863200e+02 0.0000000000e+00 0.0000e+00 1.0000e+00
       -2 -1    0    0    0  501 -0.0000000000e+00 -0.0000000000e+00 -3.0649381671e+02 3.0649381671e+02 0.0000000000e+00 0.0000e+00 -1.0000e+00
      -13  1    1    2    0    0 -3.4266607062e+01 -3.0899837414e+02 -1.1540802081e+02 3.3162208438e+02 0.0000000000e+00 0.0000e+00 -1.0000e+00
       13  1    1    2    0    0 +3.4266607062e+01 +3.0899837414e+02 +2.0822283611e+02 3.7418036434e+02 0.0000000000e+00 0.0000e+00 1.0000e+00
<mgrwt>
<rscale>  0 0.69967314E+03</rscale>
<asrwt>0</asrwt>
<pdfrwt beam="1">  1        2 0.61432097E-01 0.69967314E+03</pdfrwt>
<pdfrwt beam="2">  1       -2 0.47152895E-01 0.69967314E+03</pdfrwt>
<totfact> 0.41320426E+02</totfact>
</mgrwt>
<rwgt>
<wgt id='morphing_basis_vector_1'> +2.6338940e-04 </wgt>
<wgt id='morphing_basis_vector_2'> +1.5785085e-04 </wgt>
<wgt id='morphing_basis_vector_3'> +2.2370908e-04 </wgt>
<wgt id='morphing_basis_vector_4'> +1.1057916e-04 </wgt>
<wgt id='morphing_basis_vector_5'> +1.7348846e-04 </wgt>
</rwgt>
</event>
<event>
 4      1 +5.9529000e-06 6.33502200e+02 7.81860800e-03 9.14248300e-02
        2 -1    0    0  501    0 +0.0000000000e+00 +0.0000000000e+00 +1.3858801444e+03 1.3858801444e+03 0.0000000000e+00 0.0000e+00 1.0000e+00
       -2 -1    0    0    0  501 -0.0000000000e+00 -0.0000000000e+00 -7.2395344016e+01 7.2395344016e+01 0.0000000000e+00 0.0000e+00 -1.0000e+00
      -13  1    1    2    0    0 +1.8838198950e+01 -2.1588518094e+02 +1.1885321339e+03 1.2081266169e+03 0.0000000000e+00 0.0000e+00 1.0000e+00
       13  1    1    2    0    0 -1.8838198950e+01 +2.1588518094e+02 +1.2495266656e+02 2.5014887161e+02 0.0000000000e+00 0.0000e+00 -1.0000e+00
<mgrwt>
<rscale>  0 0.63350223E+03</rscale>
<asrwt>0</asrwt>
<pdfrwt beam="1">  1        2 0.21321231E+00 0.63350223E+03</pdfrwt>
<pdfrwt beam="2">  1       -2 0.11137746E-01 0.63350223E+03</pdfrwt>
<totfact> 0.95936157E+02</totfact>
</mgrwt>
<rwgt>
<wgt id='morphing_basis_vector_1'> +2.4240706e-04 </wgt>
<wgt id='morphing_basis_vector_2'> +2.7777496e-04 </wgt>
<wgt id='morphing_basis_vector_3'> +1.6037129e-04 </wgt>
<wgt id='morphing_basis_vector_4'> +2.2060225e-05 </wgt>
<wgt id='morphing_basis_vector_5'> +1.0659709e-04 </wgt>
</rwgt>
</event>
<event>
 4      1 +5.9529000e-06 6.82794400e+02 7.81860800e-03 9.06395900e-02
        2 -1    0    0  501    0 +0.0000000000e+00 +0.0000000000e+00 +3.0212106999e+02 3.0212106999e+02 0.0000000000e+00 0.0000e+00 1.0000e+00
       -2 -1    0    0    0  501 -0.0000000000e+00 -0.0000000000e+00 -3.8577926402e+02 3.8577926402e+02 0.0000000000e+00 0.0000e+00 -1.0000e+00
      -13  1    1    2    0    0 +2.2705107412e+02 +1.9818429761e+02 -2.0341185564e+02 3.6360086509e+02 0.0000000000e+00 0.0000e+00 -1.0000e+00
       13  1    1    2    0    0 -2.2705107412e+02 -1.9818429761e+02 +1.1975366160e+02 3.2429946893e+02 0.0000000000e+00 0.0000e+00 1.0000e+00
<mgrwt>
<rscale>  0 0.68279439E+03</rscale>
<asrwt>0</asrwt>
<pdfrwt beam="1">  1        2 0.46480165E-01 0.68279439E+03</pdfrwt>
<pdfrwt beam="2">  1       -2 0.59350656E-01 0.68279439E+03</pdfrwt>
<totfact> 0.35863352E+02</totfact>
</mgrwt>
<rwgt>
<wgt id='morphing_basis_vector_1'> +2.4226927e-04 </wgt>
<wgt id='morphing_basis_vector_2'> +1.4430566e-04 </wgt>
<wgt id='morphing_basis_vector_3'> +2.0357884e-04 </wgt>
<wgt id='morphing_basis_vector_4'> +9.8748544e-05 </wgt>
<wgt id='morphing_basis_vector_5'> +1.5432987e-04 </wgt>
</rwgt>
</event>
<event>
 4      1 +5.9529000e-06 6.79655100e+02 7.81860800e-03 9.06875100e-02
        2 -1    0    0  501    0 +0.0000000000e+00 +0.0000000000e+00 +7.5569918488e+02 7.5569918488e+02 0.0000000000e+00 0.0000e+00 -1.0000e+00
       -2 -1    0    0    0  501 -0.0000000000e+00 -0.0000000000e+00 -1.5281576404e+02 1.5281576404e+02 0.0000000000e+00 0.0000e+00 1.0000e+00
      -13  1    1    2    0    0 +3.7917634504e+01 +1.7201274472e+02 -8.7030867100e+01 1.9647010760e+02 0.0000000000e+00 0.0000e+00 1.0000e+00
       13  1    1    2    0    0 -3.7917634504e+01 -1.7201274472e+02 +6.8991428793e+02 7.1204484132e+02 0.0000000000e+00 0.0000e+00 -1.0000e+00
<mgrwt>
<rscale>  0 0.67965505E+03</rscale>
<asrwt>0</asrwt>
<pdfrwt beam="1">  1        2 0.11626141E+00 0.67965505E+03</pdfrwt>
<pdfrwt beam="2">  1       -2 0.23510118E-01 0.67965505E+03</pdfrwt>
<totfact> 0.68728036E+02</totfact>
</mgrwt>
<rwgt>
<wgt id='morphing_basis_vector_1'> +2.3739659e-04 </wgt>
<wgt id='morphing_basis_vector_2'> +1.3850454e-04 </wgt>
<wgt id='morphing_basis_vector_3'> +1.9967862e-04 </wgt>
<wgt id='morphing_basis_vector_4'> +9.7751504e-05 </wgt>
<wgt id='morphing_basis_vector_5'> +1.5096274e-04 </wgt>
</rwgt>
</event>
<event>
 4      1 +5.9529000e-06 6.38417800e+02 7.81860800e-03 9.13432100e-02
        2 -1    0    0  501    0 +0.0000000000e+00 +0.0000000000e+00 +4.6552966214e+02 4.6552966214e+02 0.0000000000e+00 0.0000e+00 -1.0000e+00
       -2 -1    0    0    0  501 -0.0000000000e+00 -0.0000000000e+00 -2.1887824709e+02 2.1887824709e+02 0.0000000000e+00 0.0000e+00 1.0000e+00
      -13  1    1    2    0    0 +1.6805152132e+02 -1.0140803488e+02 -1.4654135781e+02 2.4494749009e+02 0.0000000000e+00 0.0000e+00 1.0000e+00
       13  1    1    2    0    0 -1.6805152132e+02 +1.0140803488e+02 +3.9319277286e+02 4.3946041913e+02 0.0000000000e+00 0.0000e+00 -1.0000e+00
<mgrwt>
<rscale>  0 0.63841778E+03</rscale>
<asrwt>0</asrwt>
<pdfrwt beam="1">  1        2 0.71619948E-01 0.63841778E+03</pdfrwt>
<pdfrwt beam="2">  1       -2 0.33673576E-01 0.63841778E+03</pdfrwt>
<totfact> 0.65060469E+02</totfact>
</mgrwt>
<rwgt>
<wgt id='morphing_basis_vector_1'> +1.9242392e-04 </wgt>
<wgt id='morphing_basis_vector_2'> +1.1095270e-04 </wgt>
<wgt id='morphing_basis_vector_3'> +1.5723155e-04 </wgt>
<wgt id='morphing_basis_vector_4'> +7.2625722e-05 </wgt>
<wgt id='morphing_basis_vector_5'> +1.1113849e-04 </wgt>
</rwgt>
</event>
<event>
 4      1 +5.9529000e-06 6.63060100e+02 7.81860800e-03 9.09453700e-02
        2 -1    0    0  501    0 +0.0000000000e+00 +0.0000000000e+00 +2.5047518655e+02 2.5047518655e+02 0.0000000000e+00 0.0000e+00 -1.0000e+00
       -2 -1    0    0    0  501 -0.0000000000e+00 -0.0000000000e+00 -4.3881457054e+02 4.3881457054e+02 0.0000000000e+00 0.0000e+00 1.0000e+00
      -13  1    1    2    0    0 -2.7850587501e+02 +1.4014435528e+02 -2.1135057764e+02 3.7666301837e+02 0.0000000000e+00 0.0000e+00 1.0000e+00
       13  1    1    2    0    0 +2.7850587501e+02 -1.4014435528e+02 +2.3011193656e+01 3.1262673873e+02 0.0000000000e+00 0.0000e+00 -1.0000e+00
<mgrwt>
<rscale>  0 0.66306006E+03</rscale>
<asrwt>0</asrwt>
<pdfrwt beam="1">  1        2 0.38534645E-01 0.66306006E+03</pdfrwt>
<pdfrwt beam="2">  1       -2 0.67509933E-01 0.66306006E+03</pdfrwt>
<totfact> 0.33963277E+02</totfact>
</mgrwt>
<rwgt>
<wgt id='morphing_basis_vector_1'> +2.2028266e-04 </wgt>
<wgt id='morphing_basis_vector_2'> +1.3267413e-04 </wgt>
<wgt id='morphing_basis_vector_3'> +1.8209524e-04 </wgt>
<wgt id='morphing_basis_vector_4'> +8.5175129e-05 </wgt>
<wgt id='morphing_basis_vector_5'> +1.3387032e-04 </wgt>
</rwgt>
</event>
<event>
 4      1 +5.9529000e-06 6.84847100e+02 7.81860800e-03 9.06084000e-02
        2 -1    0    0  501    0 +0.0000000000e+00 +0.0000000000e+00 +2.0989997474e+02 2.0989997474e+02 0.0000000000e+00 0.0000e+00 1.0000e+00
       -2 -1    0    0    0  501 -0.0000000000e+00 -0.0000000000e+00 -5.5861791503e+02 5.5861791503e+02 0.0000000000e+00 0.0000e+00 -1.0000e+00
      -13  1    1    2    0    0 +1.3894577482e+02 -3.7667498216e+01 -5.2300885880e+02 5.4246016918e+02 0.0000000000e+00 0.0000e+00 -1.0000e+00
       13  1    1    2    0    0 -1.3894577482e+02 +3.7667498216e+01 +1.7429091852e+02 2.2605772059e+02 0.0000000000e+00 0.0000e+00 1.0000e+00
<mgrwt>
<rscale>  0 0.68484710E+03</rscale>
<asrwt>0</asrwt>
<pdfrwt beam="1">  1        2 0.32292304E-01 0.68484710E+03</pdfrwt>
<pdfrwt beam="2">  1       -2 0.85941216E-01 0.68484710E+03</pdfrwt>
<totfact> 0.24364673E+02</totfact>
</mgrwt>
<rwgt>
<wgt id='morphing_basis_vector_1'> +2.4357969e-04 </wgt>
<wgt id='morphing_basis_vector_2'> +1.4224936e-04 </wgt>
<wgt id='morphing_basis_vector_3'> +2.0558824e-04 </wgt>
<wgt id='morphing_basis_vector_4'> +1.0133601e-04 </wgt>
<wgt id='morphing_basis_vector_5'> +1.5660249e-04 </wgt>
</rwgt>
</event>
<event>
 4      1 +5.9529000e-06 7.10601700e+02 7.81860800e-03 9.02265300e-02
        2 -1    0    0  501    0 +0.0000000000e+00 +0.0000000000e+00 +1.3420057949e+03 1.3420057949e+03 0.0000000000e+00 0.0000e+00 -1.0000e+00
       -2 -1    0    0    0  501 -0.0000000000e+00 -0.0000000000e+00 -9.4067171683e+01 9.4067171683e+01 0.0000000000e+00 0.0000e+00 1.0000e+00
      -13  1    1    2    0    0 +3.3780334706e+02 +8.7014309251e+00 +4.0211005596e+02 5.2524214729e+02 0.0000000000e+00 0.0000e+00 1.0000e+00
       13  1    1    2    0    0 -3.3780334706e+02 -8.7014309251e+00 +8.4582856722e+02 9.1083081926e+02 0.0000000000e+00 0.0000e+00 -1.0000e+00
<mgrwt>
<rscale>  0 0.71060169E+03</rscale>
<asrwt>0</asrwt>
<pdfrwt beam="1">  1        2 0.20646242E+00 0.71060169E+03</pdfrwt>
<pdfrwt beam="2">  1       -2 0.14471874E-01 0.71060169E+03</pdfrwt>
<totfact> 0.66596032E+02</totfact>
</mgrwt>
<rwgt>
<wgt id='morphing_basis_vector_1'> +2.7920760e-04 </wgt>
<wgt id='morphing_basis_vector_2'> +1.7140522e-04 </wgt>
<wgt id='morphing_basis_vector_3'> +2.3806801e-04 </wgt>
<wgt id='morphing_basis_vector_4'> +1.1727613e-04 </wgt>
<wgt id='morphing_basis_vector_5'> +1.8671470e-04 </wgt>
</rwgt>
</event>
<event>
 4      1 +5.9529000e-06 6.80877400e+02 7.81860800e-03 9.06688200e-02
        2 -1    0    0  501    0 +0.0000000000e+00 +0.0000000000e+00 +1.0601416181e+03 1.0601416181e+03 0.0000000000e+00 0.0000e+00 -1.0000e+00
       -2 -1    0    0    0  501 -0.0000000000e+00 -0.0000000000e+00 -1.0932360094e+02 1.0932360094e+02 0.0000000000e+00 0.0000e+00 1.0000e+00
      -13  1    1    2    0    0 +2.7404022889e+02 +1.8977689921e+02 +5.9422299794e+02 6.8133273062e+02 0.0000000000e+00 0.0000e+00 1.0000e+00
       13  1    1    2    0    0 -2.7404022889e+02 -1.8977689921e+02 +3.5659501925e+02 4.8813248845e+02 0.0000000000e+00 0.0000e+00 -1.0000e+00
<mgrwt>
<rscale>  0 0.68087737E+03</rscale>
<asrwt>0</asrwt>
<pdfrwt beam="1">  1        2 0.16309870E+00 0.68087737E+03</pdfrwt>
<pdfrwt beam="2">  1       -2 0.16819016E-01 0.68087737E+03</pdfrwt>
<totfact> 0.76061024E+02</totfact>
</mgrwt>
<rwgt>
<wgt id='morphing_basis_vector_1'> +2.5558678e-04 </wgt>
<wgt id='morphing_basis_vector_2'> +1.9106197e-04 </wgt>
<wgt id='morphing_basis_vector_3'> +2.0595797e-04 </wgt>
<wgt id='morphing_basis_vector_4'> +8.1779727e-05 </wgt>
<wgt id='morphing_basis_vector_5'> +1.5191698e-04 </wgt>
</rwgt>
</event>
<event>
 4      1 +5.9529000e-06 6.39640200e+02 7.81860800e-03 9.13230400e-02
        2 -1    0    0  501    0 +0.0000000000e+00 +0.0000000000e+00 +4.9288478965e+02 4.9288478965e+02 0.0000000000e+00 0.0000e+00 1.0000e+00
       -2 -1    0    0    0  501 -0.0000000000e+00 -0.0000000000e+00 -2.0752291927e+02 2.0752291927e+02 0.0000000000e+00 0.0000e+00 -1.0000e+00
      -13  1    1    2    0    0 +1.4232327553e+02 -1.8694852551e+02 +3.8027184999e+02 4.4700374254e+02 0.0000000000e+00 0.0000e+00 1.0000e+00
       13  1    1    2    0    0 -1.4232327553e+02 +1.8694852551e+02 -9.4909979598e+01 2.5340396638e+02 0.0000000000e+00 0.0000e+00 -1.0000e+00
<mgrwt>
<rscale>  0 0.63964018E+03</rscale>
<asrwt>0</asrwt>
<pdfrwt beam="1">  1        2 0.75828429E-01 0.63964018E+03</pdfrwt>
<pdfrwt beam="2">  1       -2 0.31926603E-01 0.63964018E+03</pdfrwt>
<totfact> 0.67060842E+02</totfact>
</mgrwt>
<rwgt>
<wgt id='morphing_basis_vector_1'> +2.4543327e-04 </wgt>
<wgt id='morphing_basis_vector_2'> +2.7192475e-04 </wgt>
<wgt id='morphing_basis_vector_3'> +1.6671897e-04 </wgt>
<wgt id='morphing_basis_vector_4'> +2.7130846e-05 </wgt>
<wgt id='morphing_basis_vector_5'> +1.1176203e-04 </wgt>
</rwgt>
</event>
<event>
 4      1 +5.9529000e-06 6.45043500e+02 7.81860800e-03 9.12344200e-02
        2 -1    0    0  501    0 +0.0000000000e+00 +0.0000000000e+00 +1.3457714148e+03 1.3457714148e+03 0.0000000000e+00 0.0000e+00 -1.0000e+00
       -2 -1    0    0    0  501 -0.0000000000e+00 -0.0000000000e+00 -7.7294172265e+01 7.7294172265e+01 0.0000000000e+00 0.0000e+00 1.0000e+00
      -13  1    1    2    0    0 -5.3650576492e+01 +3.0153690018e+02 +4.1123797800e+02 5.1275682451e+02 0.0000000000e+00 0.0000e+00 1.0000e+00
       13  1    1    2    0    0 +5.3650576492e+01 -3.0153690018e+02 +8.5723926457e+02 9.1030876259e+02 0.0000000000e+00 0.0000e+00 -1.0000e+00
<mgrwt>
<rscale>  0 0.64504353E+03</rscale>
<asrwt>0</asrwt>
<pdfrwt beam="1">  1        2 0.20704174E+00 0.64504353E+03</pdfrwt>
<pdfrwt beam="2">  1       -2 0.11891412E-01 0.64504353E+03</pdfrwt>
<totfact> 0.91018848E+02</totfact>
</mgrwt>
<rwgt>
<wgt id='morphing_basis_vector_1'> +2.0106234e-04 </wgt>
<wgt id='morphing_basis_vector_2'> +1.2097216e-04 </wgt>
<wgt id='morphing_basis_vector_3'> +1.6387058e-04 </wgt>
<wgt id='morphing_basis_vector_4'> +7.4567800e-05 </wgt>
<wgt id='morphing_basis_vector_5'> +1.1694800e-04 </wgt>
</rwgt>
</event>
<event>
 4      1 +5.9529000e-06 6.45860700e+02 7.81860800e-03 9.12210900e-02
        2 -1    0    0  501    0 +0.0000000000e+00 +0.0000000000e+00 +8.9686054307e+02 8.9686054307e+02 0.0000000000e+00 0.0000e+00 -1.0000e+00
       -2 -1    0    0    0  501 -0.0000000000e+00 -0.0000000000e+00 -1.1627674069e+02 1.1627674069e+02 0.0000000000e+00 0.0000e+00 1.0000e+00
      -13  1    1    2    0    0 -6.0227262670e+01 +2.2323750633e+02 +3.6657855323e+01 2.3410703910e+02 0.0000000000e+00 0.0000e+00 1.0000e+00
       13  1    1    2    0    0 +6.0227262670e+01 -2.2323750633e+02 +7.4392594705e+02 7.7903024466e+02 0.0000000000e+00 0.0000e+00 -1.0000e+00
<mgrwt>
<rscale>  0 0.64586073E+03</rscale>
<asrwt>0</asrwt>
<pdfrwt beam="1">  1        2 0.13797854E+00 0.64586073E+03</pdfrwt>
<pdfrwt beam="2">  1       -2 0.17888730E-01 0.64586073E+03</pdfrwt>
<totfact> 0.87002344E+02</totfact>
</mgrwt>
<rwgt>
<wgt id='morphing_basis_vector_1'> +2.0013582e-04 </wgt>
<wgt id='morphing_basis_vector_2'> +1.1601494e-04 </wgt>
<wgt id='morphing_basis_vector_3'> +1.6434400e-04 </wgt>
<wgt id='morphing_basis_vector_4'> +7.6634467e-05 </wgt>
<wgt id='morphing_basis_vector_5'> +1.1769948e-04 </wgt>
</rwgt>
</event>
<event>
 4      1 +5.9529000e-06 6.92000300e+02 7.81860800e-03 9.05006100e-02
        2 -1    0    0  501    0 +0.0000000000e+00 +0.0000000000e+00 +1.6748905436e+03 1.6748905436e+03 0.0000000000e+00 0.0000e+00 -1.0000e+00
       -2 -1    0    0    0  501 -0.0000000000e+00 -0.0000000000e+00 -7.1476971371e+01 7.1476971371e+01 0.0000000000e+00 0.0000e+00 1.0000e+00
      -13  1    1    2    0    0 -1.3665109207e+02 +2.7965118776e+02 +4.2032806900e+02 5.2302389368e+02 0.0000000000e+00 0.0000e+00 1.0000e+00
       13  1    1    2    0    0 +1.3665109207e+02 -2.7965118776e+02 +1.1830855032e+03 1.2233436213e+03 0.0000000000e+00 0.0000e+00 -1.0000e+00
<mgrwt>
<rscale>  0 0.69200030E+03</rscale>
<asrwt>0</asrwt>
<pdfrwt beam="1">  1        2 0.25767544E+00 0.69200030E+03</pdfrwt>
<pdfrwt beam="2">  1       -2 0.10996458E-01 0.69200030E+03</pdfrwt>
<totfact> 0.67700585E+02</totfact>
</mgrwt>
<rwgt>
<wgt id='morphing_basis_vector_1'> +2.5379604e-04 </wgt>
<wgt id='morphing_basis_vector_2'> +1.5213295e-04 </wgt>
<wgt id='morphing_basis_vector_3'> +2.1443413e-04 </wgt>
<wgt id='morphing_basis_vector_4'> +1.0489405e-04 </wgt>
<wgt id='morphing_basis_vector_5'> +1.6457776e-04 </wgt>
</rwgt>
</event>
<event>
 4      1 +5.9529000e-06 6.42349700e+02 7.81860800e-03 9.12784800e-02
        2 -1    0    0  501    0 +0.0000000000e+00 +0.0000000000e+00 +3.2247367423e+02 3.2247367423e+02 0.0000000000e+00 0.0000e+00 -1.0000e+00
       -2 -1    0    0    0  501 -0.0000000000e+00 -0.0000000000e+00 -3.1988130249e+02 3.1988130249e+02 0.0000000000e+00 0.0000e+00 1.0000e+00
      -13  1    1    2    0    0 +2.1260005318e+02 +2.0099218893e+02 -1.3120642640e+02 3.2064274349e+02 0.0000000000e+00 0.0000e+00 1.0000e+00
       13  1    1    2    0    0 -2.1260005318e+02 -2.0099218893e+02 +1.3379879814e+02 3.2171223323e+02 0.0000000000e+00 0.0000e+00 -1.0000e+00
<mgrwt>
<rscale>  0 0.64234975E+03</rscale>
<asrwt>0</asrwt>
<pdfrwt beam="1">  1        2 0.49611334E-01 0.64234975E+03</pdfrwt>
<pdfrwt beam="2">  1       -2 0.49212508E-01 0.64234975E+03</pdfrwt>
<totfact> 0.48463002E+02</totfact>
</mgrwt>
<rwgt>
<wgt id='morphing_basis_vector_1'> +1.9756043e-04 </wgt>
<wgt id='morphing_basis_vector_2'> +1.1698511e-04 </wgt>
<wgt id='morphing_basis_vector_3'> +1.6114341e-04 </wgt>
<wgt id='morphing_basis_vector_4'> +7.3741812e-05 </wgt>
<wgt id='morphing_basis_vector_5'> +1.1456152e-04 </wgt>
</rwgt>
</event>
<event>
 4      1 +5.9529000e-06 6.86365000e+02 7.81860800e-03 9.05854100e-02
        2 -1    0    0  501    0 +0.0000000000e+00 +0.0000000000e+00 +3.4236188762e+02 3.4236188762e+02 0.0000000000e+00 0.0000e+00 1.0000e+00
       -2 -1    0    0    0  501 -0.0000000000e+00 -0.0000000000e+00 -3.4400510333e+02 3.4400510333e+02 0.0000000000e+00 0.0000e+00 -1.0000e+00
      -13  1    1    2    0    0 -2.3255170673e+02 -2.5205948887e+02 -1.3468947853e+01 3.4321377418e+02 0.0000000000e+00 0.0000e+00 -1.0000e+00
       13  1    1    2    0    0 +2.3255170673e+02 +2.5205948887e+02 +1.1825732146e+01 3.4315321676e+02 0.0000000000e+00 0.0000e+00 1.0000e+00
<mgrwt>
<rscale>  0 0.68636502E+03</rscale>
<asrwt>0</asrwt>
<pdfrwt beam="1">  1        2 0.52671059E-01 0.68636502E+03</pdfrwt>
<pdfrwt beam="2">  1       -2 0.52923862E-01 0.68636502E+03</pdfrwt>
<totfact> 0.39238717E+02</totfact>
</mgrwt>
<rwgt>
<wgt id='morphing_basis_vector_1'> +2.5283215e-04 </wgt>
<wgt id='morphing_basis_vector_2'> +1.6625418e-04 </wgt>
<wgt id='morphing_basis_vector_3'> +2.0963403e-04 </wgt>
<wgt id='morphing_basis_vector_4'> +9.4850316e-05 </wgt>
<wgt id='morphing_basis_vector_5'> +1.5810703e-04 </wgt>
</rwgt>
</event>
<event>
 4      1 +5.9529000e-06 6.67940700e+02 7.81860800e-03 9.08687200e-02
        2 -1    0    0  501    0 +0.0000000000e+00 +0.0000000000e+00 +4.4257246920e+02 4.4257246920e+02 0.0000000000e+00 0.0000e+00 -1.0000e+00
       -2 -1    0    0    0  501 -0.0000000000e+00 -0.0000000000e+00 -2.5201791022e+02 2.5201791022e+02 0.0000000000e+00 0.0000e+00 1.0000e+00
      -13  1    1    2    0    0 -2.8705858587e+02 -7.5913982585e+01 -6.3696692395e+01 3.0368212509e+02 0.0000000000e+00 0.0000e+00 1.0000e+00
       13  1    1    2    0    0 +2.8705858587e+02 +7.5913982585e+01 +2.5425125138e+02 3.9090825433e+02 0.0000000000e+00 0.0000e+00 -1.0000e+00
<mgrwt>
<rscale>  0 0.66794068E+03</rscale>
<asrwt>0</asrwt>
<pdfrwt beam="1">  1        2 0.68088072E-01 0.66794068E+03</pdfrwt>
<pdfrwt beam="2">  1       -2 0.38771986E-01 0.66794068E+03</pdfrwt>
<totfact> 0.53265397E+02</totfact>
</mgrwt>
<rwgt>
<wgt id='morphing_basis_vector_1'> +2.2494352e-04 </wgt>
<wgt id='morphing_basis_vector_2'> +1.3355567e-04 </wgt>
<wgt id='morphing_basis_vector_3'> +1.8708891e-04 </wgt>
<wgt id='morphing_basis_vector_4'> +8.8996564e-05 </wgt>
<wgt id='morphing_basis_vector_5'> +1.3874999e-04 </wgt>
</rwgt>
</event>
<event>
 4      1 +5.9529000e-06 6.86981400e+02 7.81860800e-03 9.05761000e-02
        2 -1    0    0  501    0 +0.0000000000e+00 +0.0000000000e+00 +1.8846949293e+03 1.8846949293e+03 0.0000000000e+00 0.0000e+00 1.0000e+00
       -2 -1    0    0    0  501 -0.0000000000e+00 -0.0000000000e+00 -6.2602107343e+01 6.2602107343e+01 0.0000000000e+00 0.0000e+00 -1.0000e+00
      -13  1    1    2    0    0 +2.3013635231e+02 -1.4524336687e+02 +3.1695204529e+02 4.1775228939e+02 0.0000000000e+00 0.0000e+00 -1.0000e+00
       13  1    1    2    0    0 -2.3013635231e+02 +1.4524336687e+02 +1.5051407766e+03 1.5295447472e+03 0.0000000000e+00 0.0000e+00 1.0000e+00
<mgrwt>
<rscale>  0 0.68698144E+03</rscale>
<asrwt>0</asrwt>
<pdfrwt beam="1">  1        2 0.28995302E+00 0.68698144E+03</pdfrwt>
<pdfrwt beam="2">  1       -2 0.96310949E-02 0.68698144E+03</pdfrwt>
<totfact> 0.64067784E+02</totfact>
</mgrwt>
<rwgt>
<wgt id='morphing_basis_vector_1'> +2.4669954e-04 </wgt>
<wgt id='morphing_basis_vector_2'> +1.4548204e-04 </wgt>
<wgt id='morphing_basis_vector_3'> +2.0822446e-04 </wgt>
<wgt id='morphing_basis_vector_4'> +1.0228529e-04 </wgt>
<wgt id='morphing_basis_vector_5'> +1.5895091e-04 </wgt>
</rwgt>
</event>
<event>
 4      1 +5.9529000e-06 7.10546100e+02 7.81860800e-03 9.02273300e-02
        2 -1    0    0  501    0 +0.0000000000e+00 +0.0000000000e+00 +1.5630994394e+03 1.5630994394e+03 0.0000000000e+00 0.0000e+00 -1.0000e+00
       -2 -1    0    0    0  501 -0.0000000000e+00 -0.0000000000e+00 -8.0749148117e+01 8.0749148117e+01 0.0000000000e+00 0.0000e+00 1.0000e+00
      -13  1    1    2    0    0 -1.0117302194e+02 +2.8172026553e+02 +1.1838745129e+03 1.2211310948e+03 0.0000000000e+00 0.0000e+00 1.0000e+00
       13  1    1    2    0    0 +1.0117302194e+02 -2.8172026553e+02 +2.9847577841e+02 4.2271749275e+02 0.0000000000e+00 0.0000e+00 -1.0000e+00
<mgrwt>
<rscale>  0 0.71054612E+03</rscale>
<asrwt>0</asrwt>
<pdfrwt beam="1">  1        2 0.24047681E+00 0.71054612E+03</pdfrwt>
<pdfrwt beam="2">  1       -2 0.12422947E-01 0.71054612E+03</pdfrwt>
<totfact> 0.64169114E+02</totfact>
</mgrwt>
<rwgt>
<wgt id='morphing_basis_vector_1'> +3.3051940e-04 </wgt>
<wgt id='morphing_basis_vector_2'> +3.2964420e-04 </wgt>
<wgt id='morphing_basis_vector_3'> +2.5742861e-04 </wgt>
<wgt id='morphing_basis_vector_4'> +6.1914519e-05 </wgt>
<wgt id='morphing_basis_vector_5'> +1.8508647e-04 </wgt>
</rwgt>
</event>
<event>
 4      1 +5.9529000e-06 6.57921000e+02 7.81860800e-03 9.10268300e-02
        2 -1    0    0  501    0 +0.0000000000e+00 +0.0000000000e+00 +1.1197026789e+03 1.1197026789e+03 0.0000000000e+00 0.0000e+00 -1.0000e+00
       -2 -1    0    0    0  501 -0.0000000000e+00 -0.0000000000e+00 -9.6646190585e+01 9.6646190585e+01 0.0000000000e+00 0.0000e+00 1.0000e+00
      -13  1    1    2    0    0 +1.2286688300e+02 -1.7308111066e+02 +4.6894028919e+01 2.1737615267e+02 0.0000000000e+00 0.0000e+00 1.0000e+00
       13  1    1    2    0    0 -1.2286688300e+02 +1.7308111066e+02 +9.7616245940e+02 9.9897271682e+02 0.0000000000e+00 0.0000e+00 -1.0000e+00
<mgrwt>
<rscale>  0 0.65792096E+03</rscale>
<asrwt>0</asrwt>
<pdfrwt beam="1">  1        2 0.17226194E+00 0.65792096E+03</pdfrwt>
<pdfrwt beam="2">  1       -2 0.14868646E-01 0.65792096E+03</pdfrwt>
<totfact> 0.85693992E+02</totfact>
</mgrwt>
<rwgt>
<wgt id='morphing_basis_vector_1'> +2.1281915e-04 </wgt>
<wgt id='morphing_basis_vector_2'> +1.2356688e-04 </wgt>
<wgt id='morphing_basis_vector_3'> +1.7633967e-04 </wgt>
<wgt id='morphing_basis_vector_4'> +8.3775862e-05 </wgt>
<wgt id='morphing_basis_vector_5'> +1.2890472e-04 </wgt>
</rwgt>
</event>
<event>
 4      1 +5.9529000e-06 6.21760800e+02 7.81860800e-03 9.16229700e-02
        2 -1    0    0  501    0 +0.0000000000e+00 +0.0000000000e+00 +6.9787625287e+02 6.9787625287e+02 0.0000000000e+00 0.0000e+00 -1.0000e+00
       -2 -1    0    0    0  501 -0.0000000000e+00 -0.0000000000e+00 -1.3848674729e+02 1.3848674729e+02 0.0000000000e+00 0.0000e+00 1.0000e+00
      -13  1    1    2    0    0 +1.2109387400e+02 +1.4416378860e+02 -5.3076730501e+01 1.9561202311e+02 0.0000000000e+00 0.0000e+00 1.0000e+00
       13  1    1    2    0    0 -1.2109387400e+02 -1.4416378860e+02 +6.1246623608e+02 6.4075097705e+02 0.0000000000e+00 0.0000e+00 -1.0000e+00
<mgrwt>
<rscale>  0 0.62176077E+03</rscale>
<asrwt>0</asrwt>
<pdfrwt beam="1">  1        2 0.10736558E+00 0.62176077E+03</pdfrwt>
<pdfrwt beam="2">  1       -2 0.21305654E-01 0.62176077E+03</pdfrwt>
<totfact> 0.89606866E+02</totfact>
</mgrwt>
<rwgt>
<wgt id='morphing_basis_vector_1'> +1.7628860e-04 </wgt>
<wgt id='morphing_basis_vector_2'> +1.0107170e-04 </wgt>
<wgt id='morphing_basis_vector_3'> +1.4223504e-04 </wgt>
<wgt id='morphing_basis_vector_4'> +6.3975689e-05 </wgt>
<wgt id='morphing_basis_vector_5'> +9.7388156e-05 </wgt>
</rwgt>
</event>
<event>
 4      1 +5.9529000e-06 6.21172400e+02 7.81860800e-03 9.16330200e-02
        2 -1    0    0  501    0 +0.0000000000e+00 +0.0000000000e+00 +3.2092813260e+02 3.2092813260e+02 0.0000000000e+00 0.0000e+00 -1.0000e+00
       -2 -1    0    0    0  501 -0.0000000000e+00 -0.0000000000e+00 -3.0057749057e+02 3.0057749057e+02 0.0000000000e+00 0.0000e+00 1.0000e+00
      -13  1    1    2    0    0 +5.1769160776e+01 +3.0033326585e+02 -4.9720443443e+01 3.0879157871e+02 0.0000000000e+00 0.0000e+00 1.0000e+00
       13  1    1    2    0    0 -5.1769160776e+01 -3.0033326585e+02 +7.0071085475e+01 3.1271404446e+02 0.0000000000e+00 0.0000e+00 -1.0000e+00
<mgrwt>
<rscale>  0 0.62117235E+03</rscale>
<asrwt>0</asrwt>
<pdfrwt beam="1">  1        2 0.49373559E-01 0.62117235E+03</pdfrwt>
<pdfrwt beam="2">  1       -2 0.46242691E-01 0.62117235E+03</pdfrwt>
<totfact> 0.54972350E+02</totfact>
</mgrwt>
<rwgt>
<wgt id='morphing_basis_vector_1'> +1.7855518e-04 </wgt>
<wgt id='morphing_basis_vector_2'> +1.0945845e-04 </wgt>
<wgt id='morphing_basis_vector_3'> +1.4199981e-04 </wgt>
<wgt id='morphing_basis_vector_4'> +6.1328115e-05 </wgt>
<wgt id='morphing_basis_vector_5'> +9.6919038e-05 </wgt>
</rwgt>
</event>
<event>
 4      1 +5.9529000e-06 7.20563700e+02 7.81860800e-03 9.00833000e-02
        2 -1    0    0  501    0 +0.0000000000e+00 +0.0000000000e+00 +7.8593682380e+02 7.8593682380e+02 0.0000000000e+00 0.0000e+00 -1.0000e+00
       -2 -1    0    0    0  501 -0.0000000000e+00 -0.0000000000e+00 -1.6515707663e+02 1.6515707663e+02 0.0000000000e+00 0.0000e+00 1.0000e+00
      -13  1    1    2    0    0 -7.4529536914e+01 -3.5219138316e+02 +2.9128021934e+02 4.6307406365e+02 0.0000000000e+00 0.0000e+00 1.0000e+00
       13  1    1    2    0    0 +7.4529536914e+01 +3.5219138316e+02 +3.2949952784e+02 4.8801983678e+02 0.0000000000e+00 0.0000e+00 -1.0000e+00
<mgrwt>
<rscale>  0 0.72056375E+03</rscale>
<asrwt>0</asrwt>
<pdfrwt beam="1">  1        2 0.12091336E+00 0.72056375E+03</pdfrwt>
<pdfrwt beam="2">  1       -2 0.25408782E-01 0.72056375E+03</pdfrwt>
<totfact> 0.57222068E+02</totfact>
</mgrwt>
<rwgt>
<wgt id='morphing_basis_vector_1'> +2.9862633e-04 </wgt>
<wgt id='morphing_basis_vector_2'> +1.9785842e-04 </wgt>
<wgt id='morphing_basis_vector_3'> +2.5360677e-04 </wgt>
<wgt id='morphing_basis_vector_4'> +1.1878797e-04 </wgt>
<wgt id='morphing_basis_vector_5'> +1.9922973e-04 </wgt>
</rwgt>
</event>
<event>
 4      1 +5.9529000e-06 6.48907000e+02 7.81860800e-03 9.11716100e-02
        2 -1    0    0  501    0 +0.0000000000e+00 +0.0000000000e+00 +1.9696229943e+02 1.9696229943e+02 0.0000000000e+00 0.0000e+00 -1.0000e+00
       -2 -1    0    0    0  501 -0.0000000000e+00 -0.0000000000e+00 -5.3446809205e+02 5.3446809205e+02 0.0000000000e+00 0.0000e+00 1.0000e+00
      -13  1    1    2    0    0 +1.1204442288e+02 +2.9544208849e+02 -2.5181326163e+02 4.0404195213e+02 0.0000000000e+00 0.0000e+00 1.0000e+00
       13  1    1    2    0    0 -1.1204442288e+02 -2.9544208849e+02 -8.5692530993e+01 3.2738843935e+02 0.0000000000e+00 0.0000e+00 -1.0000e+00
<mgrwt>
<rscale>  0 0.64890697E+03</rscale>
<asrwt>0</asrwt>
<pdfrwt beam="1">  1        2 0.30301892E-01 0.64890697E+03</pdfrwt>
<pdfrwt beam="2">  1       -2 0.82225860E-01 0.64890697E+03</pdfrwt>
<totfact> 0.29043731E+02</totfact>
</mgrwt>
<rwgt>
<wgt id='morphing_basis_vector_1'> +2.0600485e-04 </wgt>
<wgt id='morphing_basis_vector_2'> +1.2631011e-04 </wgt>
<wgt id='morphing_basis_vector_3'> +1.6783558e-04 </wgt>
<wgt id='morphing_basis_vector_4'> +7.5894217e-05 </wgt>
<wgt id='morphing_basis_vector_5'> +1.2043109e-04 </wgt>
</rwgt>
</event>
<event>
 4      1 +5.9529000e-06 6.99490200e+02 7.81860800e-03 9.03891800e-02
        2 -1    0    0  501    0 +0.0000000000e+00 +0.0000000000e+00 +3.1412555379e+02 3.1412555379e+02 0.0000000000e+00 0.0000e+00 1.0000e+00
       -2 -1    0    0    0  501 -0.0000000000e+00 -0.0000000000e+00 -3.8940360637e+02 3.8940360637e+02 0.0000000000e+00 0.0000e+00 -1.0000e+00
      -13  1    1    2    0    0 -9.2344149962e+01 +2.4815697369e+02 -2.6745853532e+02 3.7635540881e+02 0.0000000000e+00 0.0000e+00 -1.0000e+00
       13  1    1    2    0    0 +9.2344149962e+01 -2.4815697369e+02 +1.9218048274e+02 3.2717375135e+02 0.0000000000e+00 0.0000e+00 1.0000e+00
<mgrwt>
<rscale>  0 0.69949017E+03</rscale>
<asrwt>0</asrwt>
<pdfrwt beam="1">  1        2 0.48327008E-01 0.69949017E+03</pdfrwt>
<pdfrwt beam="2">  1       -2 0.59908247E-01 0.69949017E+03</pdfrwt>
<totfact> 0.33660861E+02</totfact>
</mgrwt>
<rwgt>
<wgt id='morphing_basis_vector_1'> +2.6222831e-04 </wgt>
<wgt id='morphing_basis_vector_2'> +1.5484877e-04 </wgt>
<wgt id='morphing_basis_vector_3'> +2.2316195e-04 </wgt>
<wgt id='morphing_basis_vector_4'> +1.1141656e-04 </wgt>
<wgt id='morphing_basis_vector_5'> +1.7329725e-04 </wgt>
</rwgt>
</event>
<event>
 4      1 +5.9529000e-06 6.56469600e+02 7.81860800e-03 9.10499800e-02
        2 -1    0    0  501    0 +0.0000000000e+00 +0.0000000000e+00 +7.6030877280e+02 7.6030877280e+02 0.0000000000e+00 0.0000e+00 1.0000e+00
       -2 -1    0    0    0  501 -0.0000000000e+00 -0.0000000000e+00 -1.4170307346e+02 1.4170307346e+02 0.0000000000e+00 0.0000e+00 -1.0000e+00
      -13  1    1    2    0    0 +1.0083902170e+02 +2.7462912002e+02 +1.0481426753e+02 3.1076629891e+02 0.0000000000e+00 0.0000e+00 -1.0000e+00
       13  1    1    2    0    0 -1.0083902170e+02 -2.7462912002e+02 +5.1379143181e+02 5.9124554735e+02 0.0000000000e+00 0.0000e+00 1.0000e+00
<mgrwt>
<rscale>  0 0.65646962E+03</rscale>
<asrwt>0</asrwt>
<pdfrwt beam="1">  1        2 0.11697058E+00 0.65646962E+03</pdfrwt>
<pdfrwt beam="2">  1       -2 0.21800473E-01 0.65646962E+03</pdfrwt>
<totfact> 0.77518836E+02</totfact>
</mgrwt>
<rwgt>
<wgt id='morphing_basis_vector_1'> +2.1222341e-04 </wgt>
<wgt id='morphing_basis_vector_2'> +1.2561641e-04 </wgt>
<wgt id='morphing_basis_vector_3'> +1.7507022e-04 </wgt>
<wgt id='morphing_basis_vector_4'> +8.1986900e-05 </wgt>
<wgt id='morphing_basis_vector_5'> +1.2750473e-04 </wgt>
</rwgt>
</event>
<event>
 4      1 +5.9529000e-06 7.01552300e+02 7.81860800e-03 9.03587600e-02
        2 -1    0    0  501    0 +0.0000000000e+00 +0.0000000000e+00 +2.5058314794e+02 2.5058314794e+02 0.0000000000e+00 0.0000e+00 -1.0000e+00
       -2 -1    0    0    0  501 -0.0000000000e+00 -0.0000000000e+00 -4.9103029092e+02 4.9103029092e+02 0.0000000000e+00 0.0000e+00 1.0000e+00
      -13  1    1    2    0    0 -1.1572046688e+02 -6.2586276565e+01 -4.6396211925e+02 4.8225420327e+02 0.0000000000e+00 0.0000e+00 1.0000e+00
       13  1    1    2    0    0 +1.1572046688e+02 +6.2586276565e+01 +2.2351497627e+02 2.5935923559e+02 0.0000000000e+00 0.0000e+00 -1.0000e+00
<mgrwt>
<rscale>  0 0.70155232E+03</rscale>
<asrwt>0</asrwt>
<pdfrwt beam="1">  1        2 0.38551254E-01 0.70155232E+03</pdfrwt>
<pdfrwt beam="2">  1       -2 0.75543120E-01 0.70155232E+03</pdfrwt>
<totfact> 0.26609422E+02</totfact>
</mgrwt>
<rwgt>
<wgt id='morphing_basis_vector_1'> +2.6445509e-04 </wgt>
<wgt id='morphing_basis_vector_2'> +1.5518681e-04 </wgt>
<wgt id='morphing_basis_vector_3'> +2.2555775e-04 </wgt>
<wgt id='morphing_basis_vector_4'> +1.1340561e-04 </wgt>
<wgt id='morphing_basis_vector_5'> +1.7575878e-04 </wgt>
</rwgt>
</event>
<event>
 4      1 +5.9529000e-06 7.12069900e+02 7.81860800e-03 9.02052600e-02
        2 -1    0    0  501    0 +0.0000000000e+00 +0.0000000000e+00 +1.0507599096e+03 1.0507599096e+03 0.0000000000e+00 0.0000e+00 -1.0000e+00
       -2 -1    0    0    0  501 -0.0000000000e+00 -0.0000000000e+00 -1.2063735458e+02 1.2063735458e+02 0.0000000000e+00 0.0000e+00 1.0000e+00
      -13  1    1    2    0    0 +1.3715957259e+02 -3.2137879682e+02 +3.5271665672e+02 4.9649382607e+02 0.0000000000e+00 0.0000e+00 1.0000e+00
       13  1    1    2    0    0 -1.3715957259e+02 +3.2137879682e+02 +5.7740589830e+02 6.7490343812e+02 0.0000000000e+00 0.0000e+00 -1.0000e+00
<mgrwt>
<rscale>  0 0.71206993E+03</rscale>
<asrwt>0</asrwt>
<pdfrwt beam="1">  1        2 0.16165537E+00 0.71206993E+03</pdfrwt>
<pdfrwt beam="2">  1       -2 0.18559594E-01 0.71206993E+03</pdfrwt>
<totfact> 0.65470808E+02</totfact>
</mgrwt>
<rwgt>
<wgt id='morphing_basis_vector_1'> +2.8299350e-04 </wgt>
<wgt id='morphing_basis_vector_2'> +1.7822907e-04 </wgt>
<wgt id='morphing_basis_vector_3'> +2.4066999e-04 </wgt>
<wgt id='morphing_basis_vector_4'> +1.1645963e-04 </wgt>
<wgt id='morphing_basis_vector_5'> +1.8849456e-04 </wgt>
</rwgt>
</event>
<event>
 4      1 +5.9529000e-06 6.21499500e+02 7.81860800e-03 9.16274300e-02
        2 -1    0    0  501    0 +0.0000000000e+00 +0.0000000000e+00 +1.4209150207e+02 1.4209150207e+02 0.0000000000e+00 0.0000e+00 -1.0000e+00
       -2 -1    0    0    0  501 -0.0000000000e+00 -0.0000000000e+00 -6.7960017309e+02 6.7960017309e+02 0.0000000000e+00 0.0000e+00 1.0000e+00
      -13  1    1    2    0    0 +2.3846933379e+02 -8.5582171559e+01 -5.0663699172e+02 5.6645650550e+02 0.0000000000e+00 0.0000e+00 1.0000e+00
       13  1    1    2    0    0 -2.3846933379e+02 +8.5582171559e+01 -3.0871679303e+01 2.5523516966e+02 0.0000000000e+00 0.0000e+00 -1.0000e+00
<mgrwt>
<rscale>  0 0.62149951E+03</rscale>
<asrwt>0</asrwt>
<pdfrwt beam="1">  1        2 0.21860231E-01 0.62149951E+03</pdfrwt>
<pdfrwt beam="2">  1       -2 0.10455387E+00 0.62149951E+03</pdfrwt>
<totfact> 0.24229908E+02</totfact>
</mgrwt>
<rwgt>
<wgt id='morphing_basis_vector_1'> +1.7642789e-04 </wgt>
<wgt id='morphing_basis_vector_2'> +1.0211017e-04 </wgt>
<wgt id='morphing_basis_vector_3'> +1.4204678e-04 </wgt>
<wgt id='morphing_basis_vector_4'> +6.3525076e-05 </wgt>
<wgt id='morphing_basis_vector_5'> +9.7181600e-05 </wgt>
</rwgt>
</event>
<event>
 4      1 +5.9529000e-06 7.09687900e+02 7.81860800e-03 9.02397900e-02
        2 -1    0    0  501    0 +0.0000000000e+00 +0.0000000000e+00 +1.7450050281e+03 1.7450050281e+03 0.0000000000e+00 0.0000e+00 -1.0000e+00
       -2 -1    0    0    0  501 -0.0000000000e+00 -0.0000000000e+00 -7.2156934036e+01 7.2156934036e+01 0.0000000000e+00 0.0000e+00 1.0000e+00
      -13  1    1    2    0    0 +1.3862043727e+02 -2.0431444048e+02 +1.8384988877e+02 3.0783241840e+02 0.0000000000e+00 0.0000e+00 1.0000e+00
       13  1    1    2    0    0 -1.3862043727e+02 +2.0431444048e+02 +1.4889982053e+03 1.5093295438e+03 0.0000000000e+00 0.0000e+00 -1.0000e+00
<mgrwt>
<rscale>  0 0.70968785E+03</rscale>
<asrwt>0</asrwt>
<pdfrwt beam="1">  1        2 0.26846228E+00 0.70968785E+03</pdfrwt>
<pdfrwt beam="2">  1       -2 0.11101068E-01 0.70968785E+03</pdfrwt>
<totfact> 0.60998065E+02</totfact>
</mgrwt>
<rwgt>
<wgt id='morphing_basis_vector_1'> +2.7539491e-04 </wgt>
<wgt id='morphing_basis_vector_2'> +1.6265775e-04 </wgt>
<wgt id='morphing_basis_vector_3'> +2.3591245e-04 </wgt>
<wgt id='morphing_basis_vector_4'> +1.1935289e-04 </wgt>
<wgt id='morphing_basis_vector_5'> +1.8565658e-04 </wgt>
</rwgt>
</event>
<event>
 4      1 +5.9529000e-06 7.33491000e+02 7.81860800e-03 8.99010100e-02
        2 -1    0    0  501    0 +0.0000000000e+00 +0.0000000000e+00 +5.5000203430e+02 5.5000203430e+02 0.0000000000e+00 0.0000e+00 -1.0000e+00
       -2 -1    0    0    0  501 -0.0000000000e+00 -0.0000000000e+00 -2.4454865207e+02 2.4454865207e+02 0.0000000000e+00 0.0000e+00 1.0000e+00
      -13  1    1    2    0    0 -3.3045275132e+02 -1.5658475538e+02 +1.8306625712e+02 4.0893894528e+02 0.0000000000e+00 0.0000e+00 1.0000e+00
       13  1    1    2    0    0 +3.3045275132e+02 +1.5658475538e+02 +1.2238712512e+02 3.8561174109e+02 0.0000000000e+00 0.0000e+00 -1.0000e+00
<mgrwt>
<rscale>  0 0.73349098E+03</rscale>
<asrwt>0</asrwt>
<pdfrwt beam="1">  1        2 0.84615697E-01 0.73349098E+03</pdfrwt>
<pdfrwt beam="2">  1       -2 0.37622870E-01 0.73349098E+03</pdfrwt>
<totfact> 0.43847064E+02</totfact>
</mgrwt>
<rwgt>
<wgt id='morphing_basis_vector_1'> +3.2242339e-04 </wgt>
<wgt id='morphing_basis_vector_2'> +2.2595736e-04 </wgt>
<wgt id='morphing_basis_vector_3'> +2.7408976e-04 </wgt>
<wgt id='morphing_basis_vector_4'> +1.2339205e-04 </wgt>
<wgt id='morphing_basis_vector_5'> +2.1640575e-04 </wgt>
</rwgt>
</event>
<event>
 4      1 +5.9529000e-06 6.33486700e+02 7.81860800e-03 9.14250900e-02
        2 -1    0    0  501    0 +0.0000000000e+00 +0.0000000000e+00 +7.0803328857e+02 7.0803328857e+02 0.0000000000e+00 0.0000e+00 -1.0000e+00
       -2 -1    0    0    0  501 -0.0000000000e+00 -0.0000000000e+00 -1.4169724007e+02 1.4169724007e+02 0.0000000000e+00 0.0000e+00 1.0000e+00
      -13  1    1    2    0    0 +1.2915201977e+02 +2.7189278299e+02 +1.5092081918e+02 3.3672395714e+02 0.0000000000e+00 0.0000e+00 1.0000e+00
       13  1    1    2    0    0 -1.2915201977e+02 -2.7189278299e+02 +4.1541522932e+02 5.1300657150e+02 0.0000000000e+00 0.0000e+00 -1.0000e+00
<mgrwt>
<rscale>  0 0.63348674E+03</rscale>
<asrwt>0</asrwt>
<pdfrwt beam="1">  1        2 0.10892820E+00 0.63348674E+03</pdfrwt>
<pdfrwt beam="2">  1       -2 0.21799576E-01 0.63348674E+03</pdfrwt>
<totfact> 0.84707778E+02</totfact>
</mgrwt>
<rwgt>
<wgt id='morphing_basis_vector_1'> +1.8933635e-04 </wgt>
<wgt id='morphing_basis_vector_2'> +1.1354437e-04 </wgt>
<wgt id='morphing_basis_vector_3'> +1.5292189e-04 </wgt>
<wgt id='morphing_basis_vector_4'> +6.8402788e-05 </wgt>
<wgt id='morphing_basis_vector_5'> +1.0692344e-04 </wgt>
</rwgt>
</event>
<event>
 4      1 +5.9529000e-06 6.90663000e+02 7.81860800e-03 9.05206600e-02
        2 -1    0    0  501    0 +0.0000000000e+00 +0.0000000000e+00 +1.4336634466e+03 1.4336634466e+03 0.0000000000e+00 0.0000e+00 1.0000e+00
       -2 -1    0    0    0  501 -0.0000000000e+00 -0.0000000000e+00 -8.3181205666e+01 8.3181205666e+01 0.0000000000e+00 0.0000e+00 -1.0000e+00
      -13  1    1    2    0    0 -2.2229046415e+02 -2.1091359477e+02 +1.0249587194e+03 1.0697840770e+03 0.0000000000e+00 0.0000e+00 1.0000e+00
       13  1    1    2    0    0 +2.2229046415e+02 +2.1091359477e+02 +3.2552352159e+02 4.4706057533e+02 0.0000000000e+00 0.0000e+00 -1.0000e+00
<mgrwt>
<rscale>  0 0.69066303E+03</rscale>
<asrwt>0</asrwt>
<pdfrwt beam="1">  1        2 0.22056359E+00 0.69066303E+03</pdfrwt>
<pdfrwt beam="2">  1       -2 0.12797110E-01 0.69066303E+03</pdfrwt>
<totfact> 0.72204126E+02</totfact>
</mgrwt>
<rwgt>
<wgt id='morphing_basis_vector_1'> +2.9043440e-04 </wgt>
<wgt id='morphing_basis_vector_2'> +2.6922739e-04 </wgt>
<wgt id='morphing_basis_vector_3'> +2.2516044e-04 </wgt>
<wgt id='morphing_basis_vector_4'> +6.4557561e-05 </wgt>
<wgt id='morphing_basis_vector_5'> +1.6212147e-04 </wgt>
</rwgt>
</event>
<event>
 4      1 +5.9529000e-06 7.15255200e+02 7.81860800e-03 9.01593200e-02
        2 -1    0    0  501    0 +0.0000000000e+00 +0.0000000000e+00 +1.7554767942e+02 1.7554767942e+02 0.0000000000e+00 0.0000e+00 -1.0000e+00
       -2 -1    0    0    0  501 -0.0000000000e+00 -0.0000000000e+00 -7.2856265509e+02 7.2856265509e+02 0.0000000000e+00 0.0000e+00 1.0000e+00
      -13  1    1    2    0    0 -7.2051839079e+01 -9.5560281188e+01 -7.0249843933e+02 7.1262001945e+02 0.0000000000e+00 0.0000e+00 1.0000e+00
       13  1    1    2    0    0 +7.2051839079e+01 +9.5560281188e+01 +1.4948346366e+02 1.9149031506e+02 0.0000000000e+00 0.0000e+00 -1.0000e+00
<mgrwt>
<rscale>  0 0.71525515E+03</rscale>
<asrwt>0</asrwt>
<pdfrwt beam="1">  1        2 0.27007335E-01 0.71525515E+03</pdfrwt>
<pdfrwt beam="2">  1       -2 0.11208656E+00 0.71525515E+03</pdfrwt>
<totfact> 0.15826990E+02</totfact>
</mgrwt>
<rwgt>
<wgt id='morphing_basis_vector_1'> +2.8261722e-04 </wgt>
<wgt id='morphing_basis_vector_2'> +1.6648688e-04 </wgt>
<wgt id='morphing_basis_vector_3'> +2.4303088e-04 </wgt>
<wgt id='morphing_basis_vector_4'> +1.2405610e-04 </wgt>
<wgt id='morphing_basis_vector_5'> +1.9266807e-04 </wgt>
</rwgt>
</event>
<event>
 4      1 +5.9529000e-06 6.61179000e+02 7.81860800e-03 9.09751000e-02
        2 -1    0    0  501    0 +0.0000000000e+00 +0.0000000000e+00 +1.1712840759e+03 1.1712840759e+03 0.0000000000e+00 0.0000e+00 -1.0000e+00
       -2 -1    0    0    0  501 -0.0000000000e+00 -0.0000000000e+00 -9.3307353551e+01 9.3307353551e+01 0.0000000000e+00 0.0000e+00 1.0000e+00
      -13  1    1    2    0    0 +2.4284853229e+02 -2.3174465665e+01 +1.1226606771e+02 2.6854447575e+02 0.0000000000e+00 0.0000e+00 1.0000e+00
       13  1    1    2    0    0 -2.4284853229e+02 +2.3174465665e+01 +9.6571065464e+02 9.9604695371e+02 0.0000000000e+00 0.0000e+00 -1.0000e+00
<mgrwt>
<rscale>  0 0.66117900E+03</rscale>
<asrwt>0</asrwt>
<pdfrwt beam="1">  1        2 0.18019754E+00 0.66117900E+03</pdfrwt>
<pdfrwt beam="2">  1       -2 0.14354978E-01 0.66117900E+03</pdfrwt>
<totfact> 0.84596402E+02</totfact>
</mgrwt>
<rwgt>
<wgt id='morphing_basis_vector_1'> +2.1654510e-04 </wgt>
<wgt id='morphing_basis_vector_2'> +1.2626651e-04 </wgt>
<wgt id='morphing_basis_vector_3'> +1.7973749e-04 </wgt>
<wgt id='morphing_basis_vector_4'> +8.5603229e-05 </wgt>
<wgt id='morphing_basis_vector_5'> +1.3205317e-04 </wgt>
</rwgt>
</event>
<event>
 4      1 +5.9529000e-06 6.92808200e+02 7.81860800e-03 9.04885200e-02
        2 -1    0    0  501    0 +0.0000000000e+00 +0.0000000000e+00 +5.1690744075e+02 5.1690744075e+02 0.0000000000e+00 0.0000e+00 1.0000e+00
       -2 -1    0    0    0  501 -0.0000000000e+00 -0.0000000000e+00 -2.3214174766e+02 2.3214174766e+02 0.0000000000e+00 0.0000e+00 -1.0000e+00
      -13  1    1    2    0    0 -1.9136502683e+02 +8.8972287134e+01 -1.5461499639e+02 2.6161505783e+02 0.0000000000e+00 0.0000e+00 -1.0000e+00
       13  1    1    2    0    0 +1.9136502683e+02 -8.8972287134e+01 +4.3938068947e+02 4.8743413058e+02 0.0000000000e+00 0.0000e+00 1.0000e+00
<mgrwt>
<rscale>  0 0.69280819E+03</rscale>
<asrwt>0</asrwt>
<pdfrwt beam="1">  1        2 0.79524221E-01 0.69280819E+03</pdfrwt>
<pdfrwt beam="2">  1       -2 0.35714115E-01 0.69280819E+03</pdfrwt>
<totfact> 0.51862738E+02</totfact>
</mgrwt>
<rwgt>
<wgt id='morphing_basis_vector_1'> +2.5346912e-04 </wgt>
<wgt id='morphing_basis_vector_2'> +1.4864468e-04 </wgt>
<wgt id='morphing_basis_vector_3'> +2.1496270e-04 </wgt>
<wgt id='morphing_basis_vector_4'> +1.0685066e-04 </wgt>
<wgt id='morphing_basis_vector_5'> +1.6553357e-04 </wgt>
</rwgt>
</event>
<event>
 4      1 +5.9529000e-06 6.44512700e+02 7.81860800e-03 9.12430800e-02
        2 -1    0    0  501    0 +0.0000000000e+00 +0.0000000000e+00 +1.1053157423e+03 1.1053157423e+03 0.0000000000e+00 0.0000e+00 -1.0000e+00
       -2 -1    0    0    0  501 -0.0000000000e+00 -0.0000000000e+00 -9.3954287148e+01 9.3954287148e+01 0.0000000000e+00 0.0000e+00 1.0000e+00
      -13  1    1    2    0    0 -2.5546610251e+02 -2.1835711343e+01 +1.4243400606e+02 2.9330389344e+02 0.0000000000e+00 0.0000e+00 1.0000e+00
       13  1    1    2    0    0 +2.5546610251e+02 +2.1835711343e+01 +8.6892744914e+02 9.0596613606e+02 0.0000000000e+00 0.0000e+00 -1.0000e+00
<mgrwt>
<rscale>  0 0.64451269E+03</rscale>
<asrwt>0</asrwt>
<pdfrwt beam="1">  1        2 0.17004857E+00 0.64451269E+03</pdfrwt>
<pdfrwt beam="2">  1       -2 0.14454506E-01 0.64451269E+03</pdfrwt>
<totfact> 0.91498678E+02</totfact>
</mgrwt>
<rwgt>
<wgt id='morphing_basis_vector_1'> +1.9895890e-04 </wgt>
<wgt id='morphing_basis_vector_2'> +1.1582055e-04 </wgt>
<wgt id='morphing_basis_vector_3'> +1.6307925e-04 </wgt>
<wgt id='morphing_basis_vector_4'> +7.5681702e-05 </wgt>
<wgt id='morphing_basis_vector_5'> +1.1648921e-04 </wgt>
</rwgt>
</event>
<event>
 4      1 +5.9529000e-06 6.92554400e+02 7.81860800e-03 9.04923100e-02
        2 -1    0    0  501    0 +0.0000000000e+00 +0.0000000000e+00 +5.9752049718e+02 5.9752049718e+02 0.0000000000e+00 0.0000e+00 -1.0000e+00
       -2 -1    0    0    0  501 -0.0000000000e+00 -0.0000000000e+00 -2.0067580022e+02 2.0067580022e+02 0.0000000000e+00 0.0000e+00 1.0000e+00
      -13  1    1    2    0    0 -8.3294337152e+00 +3.2997830621e+02 +3.1904231862e+02 4.5906760190e+02 0.0000000000e+00 0.0000e+00 1.0000e+00
       13  1    1    2    0    0 +8.3294337152e+00 -3.2997830621e+02 +7.7802378336e+01 3.3912869550e+02 0.0000000000e+00 0.0000e+00 -1.0000e+00
<mgrwt>
<rscale>  0 0.69255441E+03</rscale>
<asrwt>0</asrwt>
<pdfrwt beam="1">  1        2 0.91926229E-01 0.69255441E+03</pdfrwt>
<pdfrwt beam="2">  1       -2 0.30873200E-01 0.69255441E+03</pdfrwt>
<totfact> 0.56920714E+02</totfact>
</mgrwt>
<rwgt>
<wgt id='morphing_basis_vector_1'> +2.7772403e-04 </wgt>
<wgt id='morphing_basis_vector_2'> +2.2422585e-04 </wgt>
<wgt id='morphing_basis_vector_3'> +2.2269842e-04 </wgt>
<wgt id='morphing_basis_vector_4'> +8.1283669e-05 </wgt>
<wgt id='morphing_basis_vector_5'> +1.6462784e-04 </wgt>
</rwgt>
</event>
<event>
 4      1 +5.9529000e-06 6.48248200e+02 7.81860800e-03 9.11822800e-02
        2 -1    0    0  501    0 +0.0000000000e+00 +0.0000000000e+00 +3.4405387063e+02 3.4405387063e+02 0.0000000000e+00 0.0000e+00 -1.0000e+00
       -2 -1    0    0    0  501 -0.0000000000e+00 -0.0000000000e+00 -3.0534882627e+02 3.0534882627e+02 0.0000000000e+00 0.0000e+00 1.0000e+00
      -13  1    1    2    0    0 +9.1335249518e+01 -6.4584350483e+01 -2.8539834409e+02 3.0653789479e+02 0.0000000000e+00 0.0000e+00 1.0000e+00
       13  1    1    2    0    0 -9.1335249518e+01 +6.4584350483e+01 +3.2410338844e+02 3.4286480212e+02 0.0000000000e+00 0.0000e+00 -1.0000e+00
<mgrwt>
<rscale>  0 0.64824824E+03</rscale>
<asrwt>0</asrwt>
<pdfrwt beam="1">  1        2 0.52931365E-01 0.64824824E+03</pdfrwt>
<pdfrwt beam="2">  1       -2 0.46976742E-01 0.64824824E+03</pdfrwt>
<totfact> 0.49299652E+02</totfact>
</mgrwt>
<rwgt>
<wgt id='morphing_basis_vector_1'> +2.0238381e-04 </wgt>
<wgt id='morphing_basis_vector_2'> +1.1681884e-04 </wgt>
<wgt id='morphing_basis_vector_3'> +1.6662666e-04 </wgt>
<wgt id='morphing_basis_vector_4'> +7.8207083e-05 </wgt>
<wgt id='morphing_basis_vector_5'> +1.1986341e-04 </wgt>
</rwgt>
</event>
<event>
 4      1 +5.9529000e-06 6.96005100e+02 7.81860800e-03 9.04408500e-02
        2 -1    0    0  501    0 +0.0000000000e+00 +0.0000000000e+00 +2.5082344139e+02 2.5082344139e+02 0.0000000000e+00 0.0000e+00 -1.0000e+00
       -2 -1    0    0    0  501 -0.0000000000e+00 -0.0000000000e+00 -4.8283276641e+02 4.8283276641e+02 0.0000000000e+00 0.0000e+00 1.0000e+00
      -13  1    1    2    0    0 +2.3451980437e+02 -2.1110564562e+02 -2.7071150142e+02 4.1575214882e+02 0.0000000000e+00 0.0000e+00 1.0000e+00
       13  1    1    2    0    0 -2.3451980437e+02 +2.1110564562e+02 +3.8702176397e+01 3.1790405897e+02 0.0000000000e+00 0.0000e+00 -1.0000e+00
<mgrwt>
<rscale>  0 0.69600510E+03</rscale>
<asrwt>0</asrwt>
<pdfrwt beam="1">  1        2 0.38588222E-01 0.69600510E+03</pdfrwt>
<pdfrwt beam="2">  1       -2 0.74281964E-01 0.69600510E+03</pdfrwt>
<totfact> 0.27587073E+02</totfact>
</mgrwt>
<rwgt>
<wgt id='morphing_basis_vector_1'> +2.5895983e-04 </wgt>
<wgt id='morphing_basis_vector_2'> +1.5568767e-04 </wgt>
<wgt id='morphing_basis_vector_3'> +2.1930272e-04 </wgt>
<wgt id='morphing_basis_vector_4'> +1.0763403e-04 </wgt>
<wgt id='morphing_basis_vector_5'> +1.6918200e-04 </wgt>
</rwgt>
</event>
<event>
 4      1 +5.9529000e-06 7.38707800e+02 7.81860800e-03 8.98285800e-02
        2 -1    0    0  501    0 +0.0000000000e+00 +0.0000000000e+00 +2.7336336999e+02 2.7336336999e+02 0.0000000000e+00 0.0000e+00 -1.0000e+00
       -2 -1    0    0    0  501 -0.0000000000e+00 -0.0000000000e+00 -4.9905118058e+02 4.9905118058e+02 0.0000000000e+00 0.0000e+00 1.0000e+00
      -13  1    1    2    0    0 -1.5439035169e+02 +2.6526031387e+00 -4.6368159213e+02 4.8871672355e+02 0.0000000000e+00 0.0000e+00 1.0000e+00
       13  1    1    2    0    0 +1.5439035169e+02 -2.6526031387e+00 +2.3799378155e+02 2.8369782702e+02 0.0000000000e+00 0.0000e+00 -1.0000e+00
<mgrwt>
<rscale>  0 0.73870782E+03</rscale>
<asrwt>0</asrwt>
<pdfrwt beam="1">  1        2 0.42055903E-01 0.73870782E+03</pdfrwt>
<pdfrwt beam="2">  1       -2 0.76777104E-01 0.73870782E+03</pdfrwt>
<totfact> 0.23221017E+02</totfact>
</mgrwt>
<rwgt>
<wgt id='morphing_basis_vector_1'> +3.1600566e-04 </wgt>
<wgt id='morphing_basis_vector_2'> +1.8741447e-04 </wgt>
<wgt id='morphing_basis_vector_3'> +2.7535159e-04 </wgt>
<wgt id='morphing_basis_vector_4'> +1.4391097e-04 </wgt>
<wgt id='morphing_basis_vector_5'> +2.2424607e-04 </wgt>
</rwgt>
</event>
<event>
 4      1 +5.9529000e-06 6.94588100e+02 7.81860800e-03 9.04619400e-02
        2 -1    0    0  501    0 +0.0000000000e+00 +0.0000000000e+00 +7.0313924376e+02 7.0313924376e+02 0.0000000000e+00 0.0000e+00 -1.0000e+00
       -2 -1    0    0    0  501 -0.0000000000e+00 -0.0000000000e+00 -1.7153522583e+02 1.7153522583e+02 0.0000000000e+00 0.0000e+00 1.0000e+00
      -13  1    1    2    0    0 -1.0698834858e+02 -9.6457212554e+01 -1.3214080469e+02 1.9547811348e+02 0.0000000000e+00 0.0000e+00 1.0000e+00
       13  1    1    2    0    0 +1.0698834858e+02 +9.6457212554e+01 +6.6374482263e+02 6.7919635611e+02 0.0000000000e+00 0.0000e+00 -1.0000e+00
<mgrwt>
<rscale>  0 0.69458808E+03</rscale>
<asrwt>0</asrwt>
<pdfrwt beam="1">  1        2 0.10817527E+00 0.69458808E+03</pdfrwt>
<pdfrwt beam="2">  1       -2 0.26390035E-01 0.69458808E+03</pdfrwt>
<totfact> 0.61629932E+02</totfact>
</mgrwt>
<rwgt>
<wgt id='morphing_basis_vector_1'> +2.5559068e-04 </wgt>
<wgt id='morphing_basis_vector_2'> +1.4969675e-04 </wgt>
<wgt id='morphing_basis_vector_3'> +2.1705968e-04 </wgt>
<wgt id='morphing_basis_vector_4'> +1.0824983e-04 </wgt>
<wgt id='morphing_basis_vector_5'> +1.6758192e-04 </wgt>
</rwgt>
</event>
<event>
 4      1 +5.9529000e-06 6.83909500e+02 7.81860800e-03 9.06226300e-02
        2 -1    0    0  501    0 +0.0000000000e+00 +0.0000000000e+00 +3.3270611016e+02 3.3270611016e+02 0.0000000000e+00 0.0000e+00 1.0000e+00
       -2 -1    0    0    0  501 -0.0000000000e+00 -0.0000000000e+00 -3.5146053157e+02 3.5146053157e+02 0.0000000000e+00 0.0000e+00 -1.0000e+00
      -13  1    1    2    0    0 -3.4210473972e+01 +1.8013856222e+02 -2.9812529868e+02 3.4999850263e+02 0.0000000000e+00 0.0000e+00 -1.0000e+00
       13  1    1    2    0    0 +3.4210473972e+01 -1.8013856222e+02 +2.7937087727e+02 3.3416813910e+02 0.0000000000e+00 0.0000e+00 1.0000e+00
<mgrwt>
<rscale>  0 0.68390954E+03</rscale>
<asrwt>0</asrwt>
<pdfrwt beam="1">  1        2 0.51185556E-01 0.68390954E+03</pdfrwt>
<pdfrwt beam="2">  1       -2 0.54070851E-01 0.68390954E+03</pdfrwt>
<totfact> 0.38832621E+02</totfact>
</mgrwt>
<rwgt>
<wgt id='morphing_basis_vector_1'> +2.4249199e-04 </wgt>
<wgt id='morphing_basis_vector_2'> +1.4168501e-04 </wgt>
<wgt id='morphing_basis_vector_3'> +2.0452279e-04 </wgt>
<wgt id='morphing_basis_vector_4'> +1.0064316e-04 </wgt>
<wgt id='morphing_basis_vector_5'> +1.5557239e-04 </wgt>
</rwgt>
</event>
<event>
 4      1 +5.9529000e-06 6.96550300e+02 7.81860800e-03 9.04327400e-02
        2 -1    0    0  501    0 +0.0000000000e+00 +0.0000000000e+00 +8.6293441620e+02 8.6293441620e+02 0.0000000000e+00 0.0000e+00 1.0000e+00
       -2 -1    0    0    0  501 -0.0000000000e+00 -0.0000000000e+00 -1.4056176382e+02 1.4056176382e+02 0.0000000000e+00 0.0000e+00 -1.0000e+00
      -13  1    1    2    0    0 -2.9053183053e+02 -1.8911463273e+02 +4.0945389123e+02 5.3649378180e+02 0.0000000000e+00 0.0000e+00 1.0000e+00
       13  1    1    2    0    0 +2.9053183053e+02 +1.8911463273e+02 +3.1291876115e+02 4.6700239822e+02 0.0000000000e+00 0.0000e+00 -1.0000e+00
<mgrwt>
<rscale>  0 0.69655031E+03</rscale>
<asrwt>0</asrwt>
<pdfrwt beam="1">  1        2 0.13275914E+00 0.69655031E+03</pdfrwt>
<pdfrwt beam="2">  1       -2 0.21624887E-01 0.69655031E+03</pdfrwt>
<totfact> 0.66712364E+02</totfact>
</mgrwt>
<rwgt>
<wgt id='morphing_basis_vector_1'> +2.7064900e-04 </wgt>
<wgt id='morphing_basis_vector_2'> +1.9002899e-04 </wgt>
<wgt id='morphing_basis_vector_3'> +2.2369117e-04 </wgt>
<wgt id='morphing_basis_vector_4'> +9.6559818e-05 </wgt>
<wgt id='morphing_basis_vector_5'> +1.6952766e-04 </wgt>
</rwgt>
</event>
<event>
 4      1 +5.9529000e-06 6.98364400e+02 7.81860800e-03 9.04058400e-02
        2 -1    0    0  501    0 +0.0000000000e+00 +0.0000000000e+00 +4.4702609861e+02 4.4702609861e+02 0.0000000000e+00 0.0000e+00 -1.0000e+00
       -2 -1    0    0    0  501 -0.0000000000e+00 -0.0000000000e+00 -2.7275412832e+02 2.7275412832e+02 0.0000000000e+00 0.0000e+00 1.0000e+00
      -13  1    1    2    0    0 +1.6805203031e+01 -2.2904735537e+02 -1.8395672837e+02 2.9425360451e+02 0.0000000000e+00 0.0000e+00 1.0000e+00
       13  1    1    2    0    0 -1.6805203031e+01 +2.2904735537e+02 +3.5822869866e+02 4.2552662243e+02 0.0000000000e+00 0.0000e+00 -1.0000e+00
<mgrwt>
<rscale>  0 0.69836441E+03</rscale>
<asrwt>0</asrwt>
<pdfrwt beam="1">  1        2 0.68773246E-01 0.69836441E+03</pdfrwt>
<pdfrwt beam="2">  1       -2 0.41962174E-01 0.69836441E+03</pdfrwt>
<totfact> 0.45419350E+02</totfact>
</mgrwt>
<rwgt>
<wgt id='morphing_basis_vector_1'> +2.6054719e-04 </wgt>
<wgt id='morphing_basis_vector_2'> +1.5320774e-04 </wgt>
<wgt id='morphing_basis_vector_3'> +2.2169817e-04 </wgt>
<wgt id='morphing_basis_vector_4'> +1.1083586e-04 </wgt>
<wgt id='morphing_basis_vector_5'> +1.7197668e-04 </wgt>
</rwgt>
</event>
<event>
 4      1 +5.9529000e-06 7.07990200e+02 7.81860800e-03 9.02644800e-02
        2 -1    0    0  501    0 +0.0000000000e+00 +0.0000000000e+00 +3.6103810793e+02 3.6103810793e+02 0.0000000000e+00 0.0000e+00 -1.0000e+00
       -2 -1    0    0    0  501 -0.0000000000e+00 -0.0000000000e+00 -3.4708944907e+02 3.4708944907e+02 0.0000000000e+00 0.0000e+00 1.0000e+00
      -13  1    1    2    0    0 -2.0552974583e+02 +2.0200352999e+02 -1.9864916351e+02 3.5001341790e+02 0.0000000000e+00 0.0000e+00 1.0000e+00
       13  1    1    2    0    0 +2.0552974583e+02 -2.0200352999e+02 +2.1259782236e+02 3.5811413910e+02 0.0000000000e+00 0.0000e+00 -1.0000e+00
<mgrwt>
<rscale>  0 0.70799016E+03</rscale>
<asrwt>0</asrwt>
<pdfrwt beam="1">  1        2 0.55544324E-01 0.70799016E+03</pdfrwt>
<pdfrwt beam="2">  1       -2 0.53398377E-01 0.70799016E+03</pdfrwt>
<totfact> 0.36287487E+02</totfact>
</mgrwt>
<rwgt>
<wgt id='morphing_basis_vector_1'> +2.7358924e-04 </wgt>
<wgt id='morphing_basis_vector_2'> +1.6263597e-04 </wgt>
<wgt id='morphing_basis_vector_3'> +2.3390887e-04 </wgt>
<wgt id='morphing_basis_vector_4'> +1.1755220e-04 </wgt>
<wgt id='morphing_basis_vector_5'> +1.8354438e-04 </wgt>
</rwgt>
</event>
<event>
 4      1 +5.9529000e-06 6.44073400e+02 7.81860800e-03 9.12502600e-02
        2 -1    0    0  501    0 +0.0000000000e+00 +0.0000000000e+00 +8.0178508343e+02 8.0178508343e+02 0.0000000000e+00 0.0000e+00 1.0000e+00
       -2 -1    0    0    0  501 -0.0000000000e+00 -0.0000000000e+00 -1.2934593550e+02 1.2934593550e+02 0.0000000000e+00 0.0000e+00 -1.0000e+00
      -13  1    1    2    0    0 -2.7994440984e+02 -1.5898592431e+02 +3.2481372820e+02 4.5732849765e+02 0.0000000000e+00 0.0000e+00 -1.0000e+00
       13  1    1    2    0    0 +2.7994440984e+02 +1.5898592431e+02 +3.4762541973e+02 4.7380252128e+02 0.0000000000e+00 0.0000e+00 1.0000e+00
<mgrwt>
<rscale>  0 0.64407342E+03</rscale>
<asrwt>0</asrwt>
<pdfrwt beam="1">  1        2 0.12335155E+00 0.64407342E+03</pdfrwt>
<pdfrwt beam="2">  1       -2 0.19899375E-01 0.64407342E+03</pdfrwt>
<totfact> 0.84452373E+02</totfact>
</mgrwt>
<rwgt>
<wgt id='morphing_basis_vector_1'> +2.0428416e-04 </wgt>
<wgt id='morphing_basis_vector_2'> +1.3341253e-04 </wgt>
<wgt id='morphing_basis_vector_3'> +1.6367263e-04 </wgt>
<wgt id='morphing_basis_vector_4'> +7.0212451e-05 </wgt>
<wgt id='morphing_basis_vector_5'> +1.1604039e-04 </wgt>
</rwgt>
</event>
<event>
 4      1 +5.9529000e-06 6.65473700e+02 7.81860800e-03 9.09073800e-02
        2 -1    0    0  501    0 +0.0000000000e+00 +0.0000000000e+00 +3.4016201073e+02 3.4016201073e+02 0.0000000000e+00 0.0000e+00 -1.0000e+00
       -2 -1    0    0    0  501 -0.0000000000e+00 -0.0000000000e+00 -3.2547381564e+02 3.2547381564e+02 0.0000000000e+00 0.0000e+00 1.0000e+00
      -13  1    1    2    0    0 +1.3579847034e+02 +1.9332129026e+02 -2.2701935267e+02 3.2764635249e+02 0.0000000000e+00 0.0000e+00 1.0000e+00
       13  1    1    2    0    0 -1.3579847034e+02 -1.9332129026e+02 +2.4170754776e+02 3.3798947388e+02 0.0000000000e+00 0.0000e+00 -1.0000e+00
<mgrwt>
<rscale>  0 0.66547375E+03</rscale>
<asrwt>0</asrwt>
<pdfrwt beam="1">  1        2 0.52332617E-01 0.66547375E+03</pdfrwt>
<pdfrwt beam="2">  1       -2 0.50072895E-01 0.66547375E+03</pdfrwt>
<totfact> 0.44101225E+02</totfact>
</mgrwt>
<rwgt>
<wgt id='morphing_basis_vector_1'> +2.2125605e-04 </wgt>
<wgt id='morphing_basis_vector_2'> +1.2902883e-04 </wgt>
<wgt id='morphing_basis_vector_3'> +1.8423057e-04 </wgt>
<wgt id='morphing_basis_vector_4'> +8.8322502e-05 </wgt>
<wgt id='morphing_basis_vector_5'> +1.3628996e-04 </wgt>
</rwgt>
</event>
<event>
 4      1 +5.9529000e-06 6.85265000e+02 7.81860800e-03 9.06020700e-02
        2 -1    0    0  501    0 +0.0000000000e+00 +0.0000000000e+00 +1.1283500023e+03 1.1283500023e+03 0.0000000000e+00 0.0000e+00 -1.0000e+00
       -2 -1    0    0    0  501 -0.0000000000e+00 -0.0000000000e+00 -1.0404309008e+02 1.0404309008e+02 0.0000000000e+00 0.0000e+00 1.0000e+00
      -13  1    1    2    0    0 +2.6088004930e+02 -8.6400581007e+01 +1.4414256949e+02 3.1032328443e+02 0.0000000000e+00 0.0000e+00 1.0000e+00
       13  1    1    2    0    0 -2.6088004930e+02 +8.6400581007e+01 +8.8016434270e+02 9.2206980793e+02 0.0000000000e+00 0.0000e+00 -1.0000e+00
<mgrwt>
<rscale>  0 0.68526497E+03</rscale>
<asrwt>0</asrwt>
<pdfrwt beam="1">  1        2 0.17359230E+00 0.68526497E+03</pdfrwt>
<pdfrwt beam="2">  1       -2 0.16006630E-01 0.68526497E+03</pdfrwt>
<totfact> 0.75085631E+02</totfact>
</mgrwt>
<rwgt>
<wgt id='morphing_basis_vector_1'> +2.4465388e-04 </wgt>
<wgt id='morphing_basis_vector_2'> +1.4431616e-04 </wgt>
<wgt id='morphing_basis_vector_3'> +2.0624423e-04 </wgt>
<wgt id='morphing_basis_vector_4'> +1.0104910e-04 </wgt>
<wgt id='morphing_basis_vector_5'> +1.5704974e-04 </wgt>
</rwgt>
</event>
<event>
 4      1 +5.9529000e-06 7.08774400e+02 7.81860800e-03 9.02530600e-02
        2 -1    0    0  501    0 +0.0000000000e+00 +0.0000000000e+00 +3.2112163170e+03 3.2112163170e+03 0.0000000000e+00 0.0000e+00 -1.0000e+00
       -2 -1    0    0    0  501 -0.0000000000e+00 -0.0000000000e+00 -3.9109881597e+01 3.9109881597e+01 0.0000000000e+00 0.0000e+00 1.0000e+00
      -13  1    1    2    0    0 +2.9336162586e+02 -1.9177256901e+02 +1.8266472265e+03 1.8599671642e+03 0.0000000000e+00 0.0000e+00 1.0000e+00
       13  1    1    2    0    0 -2.9336162586e+02 +1.9177256901e+02 +1.3454592089e+03 1.3903590344e+03 0.0000000000e+00 0.0000e+00 -1.0000e+00
<mgrwt>
<rscale>  0 0.70877441E+03</rscale>
<asrwt>0</asrwt>
<pdfrwt beam="1">  1        2 0.49403307E+00 0.70877441E+03</pdfrwt>
<pdfrwt beam="2">  1       -2 0.60169074E-02 0.70877441E+03</pdfrwt>
<totfact> 0.21609745E+02</totfact>
</mgrwt>
<rwgt>
<wgt id='morphing_basis_vector_1'> +2.8993553e-04 </wgt>
<wgt id='morphing_basis_vector_2'> +2.1043834e-04 </wgt>
<wgt id='morphing_basis_vector_3'> +2.4062374e-04 </wgt>
<wgt id='morphing_basis_vector_4'> +1.0174590e-04 </wgt>
<wgt id='morphing_basis_vector_5'> +1.8405521e-04 </wgt>
</rwgt>
</event>
<event>
 4      1 +5.9529000e-06 7.16505600e+02 7.81860800e-03 9.01413500e-02
        2 -1    0    0  501    0 +0.0000000000e+00 +0.0000000000e+00 +6.8495573653e+02 6.8495573653e+02 0.0000000000e+00 0.0000e+00 1.0000e+00
       -2 -1    0    0    0  501 -0.0000000000e+00 -0.0000000000e+00 -1.8737716887e+02 1.8737716887e+02 0.0000000000e+00 0.0000e+00 -1.0000e+00
      -13  1    1    2    0    0 -2.2585473478e+02 +5.6690991073e+01 -8.2672014144e+01 2.4710097453e+02 0.0000000000e+00 0.0000e+00 -1.0000e+00
       13  1    1    2    0    0 +2.2585473478e+02 -5.6690991073e+01 +5.8025058180e+02 6.2523193086e+02 0.0000000000e+00 0.0000e+00 1.0000e+00
<mgrwt>
<rscale>  0 0.71650559E+03</rscale>
<asrwt>0</asrwt>
<pdfrwt beam="1">  1        2 0.10537780E+00 0.71650559E+03</pdfrwt>
<pdfrwt beam="2">  1       -2 0.28827257E-01 0.71650559E+03</pdfrwt>
<totfact> 0.54531979E+02</totfact>
</mgrwt>
<rwgt>
<wgt id='morphing_basis_vector_1'> +2.8451659e-04 </wgt>
<wgt id='morphing_basis_vector_2'> +1.6814734e-04 </wgt>
<wgt id='morphing_basis_vector_3'> +2.4475246e-04 </wgt>
<wgt id='morphing_basis_vector_4'> +1.2485114e-04 </wgt>
<wgt id='morphing_basis_vector_5'> +1.9426029e-04 </wgt>
</rwgt>
</event>
<event>
 4      1 +5.9529000e-06 6.82837200e+02 7.81860800e-03 9.06389400e-02
        2 -1    0    0  501    0 +0.0000000000e+00 +0.0000000000e+00 +1.1274322306e+03 1.1274322306e+03 0.0000000000e+00 0.0000e+00 -1.0000e+00
       -2 -1    0    0    0  501 -0.0000000000e+00 -0.0000000000e+00 -1.0339128928e+02 1.0339128928e+02 0.0000000000e+00 0.0000e+00 1.0000e+00
      -13  1    1    2    0    0 -8.8341456049e+01 +3.2950671920e+02 +4.8732004335e+02 5.9486108925e+02 0.0000000000e+00 0.0000e+00 1.0000e+00
       13  1    1    2    0    0 +8.8341456049e+01 -3.2950671920e+02 +5.3672089796e+02 6.3596243062e+02 0.0000000000e+00 0.0000e+00 -1.0000e+00
<mgrwt>
<rscale>  0 0.68283723E+03</rscale>
<asrwt>0</asrwt>
<pdfrwt beam="1">  1        2 0.17345110E+00 0.68283723E+03</pdfrwt>
<pdfrwt beam="2">  1       -2 0.15906353E-01 0.68283723E+03</pdfrwt>
<totfact> 0.75957674E+02</totfact>
</mgrwt>
<rwgt>
<wgt id='morphing_basis_vector_1'> +2.4834797e-04 </wgt>
<wgt id='morphing_basis_vector_2'> +1.6293716e-04 </wgt>
<wgt id='morphing_basis_vector_3'> +2.0542703e-04 </wgt>
<wgt id='morphing_basis_vector_4'> +9.2698287e-05 </wgt>
<wgt id='morphing_basis_vector_5'> +1.5424322e-04 </wgt>
</rwgt>
</event>
<event>
 4      1 +5.9529000e-06 6.89727400e+02 7.81860800e-03 9.05347100e-02
        2 -1    0    0  501    0 +0.0000000000e+00 +0.0000000000e+00 +6.3554639418e+02 6.3554639418e+02 0.0000000000e+00 0.0000e+00 1.0000e+00
       -2 -1    0    0    0  501 -0.0000000000e+00 -0.0000000000e+00 -1.8713182583e+02 1.8713182583e+02 0.0000000000e+00 0.0000e+00 -1.0000e+00
      -13  1    1    2    0    0 +1.3041192356e+01 -1.8787628090e+02 +5.6879560260e+02 5.9916275516e+02 0.0000000000e+00 0.0000e+00 1.0000e+00
       13  1    1    2    0    0 -1.3041192356e+01 +1.8787628090e+02 -1.2038103425e+02 2.2351546486e+02 0.0000000000e+00 0.0000e+00 -1.0000e+00
<mgrwt>
<rscale>  0 0.68972736E+03</rscale>
<asrwt>0</asrwt>
<pdfrwt beam="1">  1        2 0.97776367E-01 0.68972736E+03</pdfrwt>
<pdfrwt beam="2">  1       -2 0.28789512E-01 0.68972736E+03</pdfrwt>
<totfact> 0.59850227E+02</totfact>
</mgrwt>
<rwgt>
<wgt id='morphing_basis_vector_1'> +3.3383811e-04 </wgt>
<wgt id='morphing_basis_vector_2'> +4.0596360e-04 </wgt>
<wgt id='morphing_basis_vector_3'> +2.3815706e-04 </wgt>
<wgt id='morphing_basis_vector_4'> +1.8264444e-05 </wgt>
<wgt id='morphing_basis_vector_5'> +1.5999717e-04 </wgt>
</rwgt>
</event>
<event>
 4      1 +5.9529000e-06 7.30983100e+02 7.81860800e-03 8.99360600e-02
        2 -1    0    0  501    0 +0.0000000000e+00 +0.0000000000e+00 +6.5779022485e+02 6.5779022485e+02 0.0000000000e+00 0.0000e+00 1.0000e+00
       -2 -1    0    0    0  501 -0.0000000000e+00 -0.0000000000e+00 -2.0308007760e+02 2.0308007760e+02 0.0000000000e+00 0.0000e+00 -1.0000e+00
      -13  1    1    2    0    0 +2.1028919344e+02 +2.6599459113e+02 +6.6699125039e+01 3.4557696779e+02 0.0000000000e+00 0.0000e+00 -1.0000e+00
       13  1    1    2    0    0 -2.1028919344e+02 -2.6599459113e+02 +3.8801102221e+02 5.1529333466e+02 0.0000000000e+00 0.0000e+00 1.0000e+00
<mgrwt>
<rscale>  0 0.73098315E+03</rscale>
<asrwt>0</asrwt>
<pdfrwt beam="1">  1        2 0.10119849E+00 0.73098315E+03</pdfrwt>
<pdfrwt beam="2">  1       -2 0.31243089E-01 0.73098315E+03</pdfrwt>
<totfact> 0.49661210E+02</totfact>
</mgrwt>
<rwgt>
<wgt id='morphing_basis_vector_1'> +3.0705634e-04 </wgt>
<wgt id='morphing_basis_vector_2'> +1.8760767e-04 </wgt>
<wgt id='morphing_basis_vector_3'> +2.6538937e-04 </wgt>
<wgt id='morphing_basis_vector_4'> +1.3446781e-04 </wgt>
<wgt id='morphing_basis_vector_5'> +2.1338095e-04 </wgt>
</rwgt>
</event>
<event>
 4      1 +5.9529000e-06 6.51267800e+02 7.81860800e-03 9.11334500e-02
        2 -1    0    0  501    0 +0.0000000000e+00 +0.0000000000e+00 +4.6482316651e+02 4.6482316651e+02 0.0000000000e+00 0.0000e+00 -1.0000e+00
       -2 -1    0    0    0  501 -0.0000000000e+00 -0.0000000000e+00 -2.2812428472e+02 2.2812428472e+02 0.0000000000e+00 0.0000e+00 1.0000e+00
      -13  1    1    2    0    0 +1.9313821288e+02 -1.4901691307e+02 -1.1116114538e+02 2.6807687311e+02 0.0000000000e+00 0.0000e+00 1.0000e+00
       13  1    1    2    0    0 -1.9313821288e+02 +1.4901691307e+02 +3.4786002716e+02 4.2487057812e+02 0.0000000000e+00 0.0000e+00 -1.0000e+00
<mgrwt>
<rscale>  0 0.65126785E+03</rscale>
<asrwt>0</asrwt>
<pdfrwt beam="1">  1        2 0.71511256E-01 0.65126785E+03</pdfrwt>
<pdfrwt beam="2">  1       -2 0.35096044E-01 0.65126785E+03</pdfrwt>
<totfact> 0.60476235E+02</totfact>
</mgrwt>
<rwgt>
<wgt id='morphing_basis_vector_1'> +2.0586828e-04 </wgt>
<wgt id='morphing_basis_vector_2'> +1.1973327e-04 </wgt>
<wgt id='morphing_basis_vector_3'> +1.6966623e-04 </wgt>
<wgt id='morphing_basis_vector_4'> +7.9665079e-05 </wgt>
<wgt id='morphing_basis_vector_5'> +1.2263311e-04 </wgt>
</rwgt>
</event>
<event>
 4      1 +5.9529000e-06 6.59475900e+02 7.81860800e-03 9.10021000e-02
        2 -1    0    0  501    0 +0.0000000000e+00 +0.0000000000e+00 +1.4392443091e+03 1.4392443091e+03 0.0000000000e+00 0.0000e+00 -1.0000e+00
       -2 -1    0    0    0  501 -0.0000000000e+00 -0.0000000000e+00 -7.5544577763e+01 7.5544577763e+01 0.0000000000e+00 0.0000e+00 1.0000e+00
      -13  1    1    2    0    0 +2.9663469081e+02 +2.9388472328e+01 +3.5805784407e+02 4.6589831701e+02 0.0000000000e+00 0.0000e+00 1.0000e+00
       13  1    1    2    0    0 -2.9663469081e+02 -2.9388472328e+01 +1.0056418873e+03 1.0488905699e+03 0.0000000000e+00 0.0000e+00 -1.0000e+00
<mgrwt>
<rscale>  0 0.65947586E+03</rscale>
<asrwt>0</asrwt>
<pdfrwt beam="1">  1        2 0.22142218E+00 0.65947586E+03</pdfrwt>
<pdfrwt beam="2">  1       -2 0.11622244E-01 0.65947586E+03</pdfrwt>
<totfact> 0.83686069E+02</totfact>
</mgrwt>
<rwgt>
<wgt id='morphing_basis_vector_1'> +2.1566007e-04 </wgt>
<wgt id='morphing_basis_vector_2'> +1.2815392e-04 </wgt>
<wgt id='morphing_basis_vector_3'> +1.7819648e-04 </wgt>
<wgt id='morphing_basis_vector_4'> +8.3632069e-05 </wgt>
<wgt id='morphing_basis_vector_5'> +1.3038482e-04 </wgt>
</rwgt>
</event>
<event>
 4      1 +5.9529000e-06 6.80714900e+02 7.81860800e-03 9.06713000e-02
        2 -1    0    0  501    0 +0.0000000000e+00 +0.0000000000e+00 +3.6189413056e+02 3.6189413056e+02 0.0000000000e+00 0.0000e+00 1.0000e+00
       -2 -1    0    0    0  501 -0.0000000000e+00 -0.0000000000e+00 -3.2010245251e+02 3.2010245251e+02 0.0000000000e+00 0.0000e+00 -1.0000e+00
      -13  1    1    2    0    0 -1.5067009648e+01 +3.0757781916e+02 -1.2433249084e+02 3.3209892788e+02 0.0000000000e+00 0.0000e+00 -1.0000e+00
       13  1    1    2    0    0 +1.5067009648e+01 -3.0757781916e+02 +1.6612416888e+02 3.4989765519e+02 0.0000000000e+00 0.0000e+00 1.0000e+00
<mgrwt>
<rscale>  0 0.68071491E+03</rscale>
<asrwt>0</asrwt>
<pdfrwt beam="1">  1        2 0.55676020E-01 0.68071491E+03</pdfrwt>
<pdfrwt beam="2">  1       -2 0.49246531E-01 0.68071491E+03</pdfrwt>
<totfact> 0.42472289E+02</totfact>
</mgrwt>
<rwgt>
<wgt id='morphing_basis_vector_1'> +2.4005491e-04 </wgt>
<wgt id='morphing_basis_vector_2'> +1.4360313e-04 </wgt>
<wgt id='morphing_basis_vector_3'> +2.0128504e-04 </wgt>
<wgt id='morphing_basis_vector_4'> +9.7064618e-05 </wgt>
<wgt id='morphing_basis_vector_5'> +1.5207192e-04 </wgt>
</rwgt>
</event>
<event>
 4      1 +5.9529000e-06 6.25858600e+02 7.81860800e-03 9.15533000e-02
        2 -1    0    0  501    0 +0.0000000000e+00 +0.0000000000e+00 +9.0246549735e+02 9.0246549735e+02 0.0000000000e+00 0.0000e+00 -1.0000e+00
       -2 -1    0    0    0  501 -0.0000000000e+00 -0.0000000000e+00 -1.0850801389e+02 1.0850801389e+02 0.0000000000e+00 0.0000e+00 1.0000e+00
      -13  1    1    2    0    0 -1.4112347987e+02 +2.1667628921e+02 +1.1229261194e+02 2.8191147826e+02 0.0000000000e+00 0.0000e+00 1.0000e+00
       13  1    1    2    0    0 +1.4112347987e+02 -2.1667628921e+02 +6.8166487152e+02 7.2906203298e+02 0.0000000000e+00 0.0000e+00 -1.0000e+00
<mgrwt>
<rscale>  0 0.62585857E+03</rscale>
<asrwt>0</asrwt>
<pdfrwt beam="1">  1        2 0.13884084E+00 0.62585857E+03</pdfrwt>
<pdfrwt beam="2">  1       -2 0.16693541E-01 0.62585857E+03</pdfrwt>
<totfact> 0.96665405E+02</totfact>
</mgrwt>
<rwgt>
<wgt id='morphing_basis_vector_1'> +1.8059122e-04 </wgt>
<wgt id='morphing_basis_vector_2'> +1.0478941e-04 </wgt>
<wgt id='morphing_basis_vector_3'> +1.4586512e-04 </wgt>
<wgt id='morphing_basis_vector_4'> +6.5657698e-05 </wgt>
<wgt id='morphing_basis_vector_5'> +1.0065190e-04 </wgt>
</rwgt>
</event>
<event>
 4      1 +5.9529000e-06 6.62240700e+02 7.81860800e-03 9.09583100e-02
        2 -1    0    0  501    0 +0.0000000000e+00 +0.0000000000e+00 +2.0537239652e+02 2.0537239652e+02 0.0000000000e+00 0.0000e+00 -1.0000e+00
       -2 -1    0    0    0  501 -0.0000000000e+00 -0.0000000000e+00 -5.3386289662e+02 5.3386289662e+02 0.0000000000e+00 0.0000e+00 1.0000e+00
      -13  1    1    2    0    0 +2.7001721426e+02 -9.7114391614e+01 -3.4868295884e+02 4.5157536120e+02 0.0000000000e+00 0.0000e+00 1.0000e+00
       13  1    1    2    0    0 -2.7001721426e+02 +9.7114391614e+01 +2.0192458737e+01 2.8765993194e+02 0.0000000000e+00 0.0000e+00 -1.0000e+00
<mgrwt>
<rscale>  0 0.66224075E+03</rscale>
<asrwt>0</asrwt>
<pdfrwt beam="1">  1        2 0.31595754E-01 0.66224075E+03</pdfrwt>
<pdfrwt beam="2">  1       -2 0.82132752E-01 0.66224075E+03</pdfrwt>
<totfact> 0.27735926E+02</totfact>
</mgrwt>
<rwgt>
<wgt id='morphing_basis_vector_1'> +2.1832171e-04 </wgt>
<wgt id='morphing_basis_vector_2'> +1.2885909e-04 </wgt>
<wgt id='morphing_basis_vector_3'> +1.8098601e-04 </wgt>
<wgt id='morphing_basis_vector_4'> +8.5678323e-05 </wgt>
<wgt id='morphing_basis_vector_5'> +1.3308207e-04 </wgt>
</rwgt>
</event>
<event>
 4      1 +5.9529000e-06 6.42541300e+02 7.81860800e-03 9.12753400e-02
        2 -1    0    0  501    0 +0.0000000000e+00 +0.0000000000e+00 +1.1963957436e+03 1.1963957436e+03 0.0000000000e+00 0.0000e+00 -1.0000e+00
       -2 -1    0    0    0  501 -0.0000000000e+00 -0.0000000000e+00 -8.6271482856e+01 8.6271482856e+01 0.0000000000e+00 0.0000e+00 1.0000e+00
      -13  1    1    2    0    0 -2.7997653293e+01 -2.2770474146e+02 +1.0610087203e+02 2.5276612297e+02 0.0000000000e+00 0.0000e+00 1.0000e+00
       13  1    1    2    0    0 +2.7997653293e+01 +2.2770474146e+02 +1.0040233887e+03 1.0299011035e+03 0.0000000000e+00 0.0000e+00 -1.0000e+00
<mgrwt>
<rscale>  0 0.64254131E+03</rscale>
<asrwt>0</asrwt>
<pdfrwt beam="1">  1        2 0.18406087E+00 0.64254131E+03</pdfrwt>
<pdfrwt beam="2">  1       -2 0.13272537E-01 0.64254131E+03</pdfrwt>
<totfact> 0.92853487E+02</totfact>
</mgrwt>
<rwgt>
<wgt id='morphing_basis_vector_1'> +1.9672107e-04 </wgt>
<wgt id='morphing_basis_vector_2'> +1.1390403e-04 </wgt>
<wgt id='morphing_basis_vector_3'> +1.6115010e-04 </wgt>
<wgt id='morphing_basis_vector_4'> +7.4778653e-05 </wgt>
<wgt id='morphing_basis_vector_5'> +1.1474032e-04 </wgt>
</rwgt>
</event>
<event>
 4      1 +5.9529000e-06 6.84641100e+02 7.81860800e-03 9.06115300e-02
        2 -1    0    0  501    0 +0.0000000000e+00 +0.0000000000e+00 +3.1298836977e+02 3.1298836977e+02 0.0000000000e+00 0.0000e+00 1.0000e+00
       -2 -1    0    0    0  501 -0.0000000000e+00 -0.0000000000e+00 -3.7440162941e+02 3.7440162941e+02 0.0000000000e+00 0.0000e+00 -1.0000e+00
      -13  1    1    2    0    0 +1.0881172052e+02 -3.1720221060e+02 +3.8316197451e+01 3.3752831573e+02 0.0000000000e+00 0.0000e+00 -1.0000e+00
       13  1    1    2    0    0 -1.0881172052e+02 +3.1720221060e+02 -9.9729457086e+01 3.4986168345e+02 0.0000000000e+00 0.0000e+00 1.0000e+00
<mgrwt>
<rscale>  0 0.68464109E+03</rscale>
<asrwt>0</asrwt>
<pdfrwt beam="1">  1        2 0.48152057E-01 0.68464109E+03</pdfrwt>
<pdfrwt beam="2">  1       -2 0.57600251E-01 0.68464109E+03</pdfrwt>
<totfact> 0.36627998E+02</totfact>
</mgrwt>
<rwgt>
<wgt id='morphing_basis_vector_1'> +2.6029388e-04 </wgt>
<wgt id='morphing_basis_vector_2'> +1.9443623e-04 </wgt>
<wgt id='morphing_basis_vector_3'> +2.1050541e-04 </wgt>
<wgt id='morphing_basis_vector_4'> +8.4005306e-05 </wgt>
<wgt id='morphing_basis_vector_5'> +1.5599150e-04 </wgt>
</rwgt>
</event>
<event>
 4      1 +5.9529000e-06 6.61316200e+02 7.81860800e-03 9.09729300e-02
        2 -1    0    0  501    0 +0.0000000000e+00 +0.0000000000e+00 +2.3588248161e+03 2.3588248161e+03 0.0000000000e+00 0.0000e+00 -1.0000e+00
       -2 -1    0    0    0  501 -0.0000000000e+00 -0.0000000000e+00 -4.6351375158e+01 4.6351375158e+01 0.0000000000e+00 0.0000e+00 1.0000e+00
      -13  1    1    2    0    0 +1.2479787149e+02 +2.9982715699e+02 +9.3016148159e+02 9.8522647886e+02 0.0000000000e+00 0.0000e+00 1.0000e+00
       13  1    1    2    0    0 -1.2479787149e+02 -2.9982715699e+02 +1.3823119593e+03 1.4199497124e+03 0.0000000000e+00 0.0000e+00 -1.0000e+00
<mgrwt>
<rscale>  0 0.66131618E+03</rscale>
<asrwt>0</asrwt>
<pdfrwt beam="1">  1        2 0.36289603E+00 0.66131618E+03</pdfrwt>
<pdfrwt beam="2">  1       -2 0.71309826E-02 0.66131618E+03</pdfrwt>
<totfact> 0.55726123E+02</totfact>
</mgrwt>
<rwgt>
<wgt id='morphing_basis_vector_1'> +2.2005975e-04 </wgt>
<wgt id='morphing_basis_vector_2'> +1.3675360e-04 </wgt>
<wgt id='morphing_basis_vector_3'> +1.8066090e-04 </wgt>
<wgt id='morphing_basis_vector_4'> +8.2484898e-05 </wgt>
<wgt id='morphing_basis_vector_5'> +1.3213514e-04 </wgt>
</rwgt>
</event>
<event>
 4      1 +5.9529000e-06 6.73202900e+02 7.81860800e-03 9.07868400e-02
        2 -1    0    0  501    0 +0.0000000000e+00 +0.0000000000e+00 +1.0520850383e+03 1.0520850383e+03 0.0000000000e+00 0.0000e+00 -1.0000e+00
       -2 -1    0    0    0  501 -0.0000000000e+00 -0.0000000000e+00 -1.0769143039e+02 1.0769143039e+02 0.0000000000e+00 0.0000e+00 1.0000e+00
      -13  1    1    2    0    0 +2.1565457489e+02 -6.6517005105e+01 +4.1954448273e+01 2.2954647322e+02 0.0000000000e+00 0.0000e+00 1.0000e+00
       13  1    1    2    0    0 -2.1565457489e+02 +6.6517005105e+01 +9.0243915966e+02 9.3022999550e+02 0.0000000000e+00 0.0000e+00 -1.0000e+00
<mgrwt>
<rscale>  0 0.67320292E+03</rscale>
<asrwt>0</asrwt>
<pdfrwt beam="1">  1        2 0.16185923E+00 0.67320292E+03</pdfrwt>
<pdfrwt beam="2">  1       -2 0.16567913E-01 0.67320292E+03</pdfrwt>
<totfact> 0.78850881E+02</totfact>
</mgrwt>
<rwgt>
<wgt id='morphing_basis_vector_1'> +2.2998491e-04 </wgt>
<wgt id='morphing_basis_vector_2'> +1.3426230e-04 </wgt>
<wgt id='morphing_basis_vector_3'> +1.9254429e-04 </wgt>
<wgt id='morphing_basis_vector_4'> +9.3331074e-05 </wgt>
<wgt id='morphing_basis_vector_5'> +1.4415451e-04 </wgt>
</rwgt>
</event>
<event>
 4      1 +5.9529000e-06 6.48535500e+02 7.81860800e-03 9.11776300e-02
        2 -1    0    0  501    0 +0.0000000000e+00 +0.0000000000e+00 +1.8414336447e+02 1.8414336447e+02 0.0000000000e+00 0.0000e+00 -1.0000e+00
       -2 -1    0    0    0  501 -0.0000000000e+00 -0.0000000000e+00 -5.7102010516e+02 5.7102010516e+02 0.0000000000e+00 0.0000e+00 1.0000e+00
      -13  1    1    2    0    0 -2.4035212604e+01 -2.1800512006e+02 -4.7154956293e+02 5.2006049083e+02 0.0000000000e+00 0.0000e+00 1.0000e+00
       13  1    1    2    0    0 +2.4035212604e+01 +2.1800512006e+02 +8.4672822245e+01 2.3510297881e+02 0.0000000000e+00 0.0000e+00 -1.0000e+00
<mgrwt>
<rscale>  0 0.64853547E+03</rscale>
<asrwt>0</asrwt>
<pdfrwt beam="1">  1        2 0.28329748E-01 0.64853547E+03</pdfrwt>
<pdfrwt beam="2">  1       -2 0.87849247E-01 0.64853547E+03</pdfrwt>
<totfact> 0.26978158E+02</totfact>
</mgrwt>
<rwgt>
<wgt id='morphing_basis_vector_1'> +2.0285293e-04 </wgt>
<wgt id='morphing_basis_vector_2'> +1.1752599e-04 </wgt>
<wgt id='morphing_basis_vector_3'> +1.6694034e-04 </wgt>
<wgt id='morphing_basis_vector_4'> +7.8217011e-05 </wgt>
<wgt id='morphing_basis_vector_5'> +1.2012339e-04 </wgt>
</rwgt>
</event>
<event>
 4      1 +5.9529000e-06 6.55370900e+02 7.81860800e-03 9.10675400e-02
        2 -1    0    0  501    0 +0.0000000000e+00 +0.0000000000e+00 +7.8955568567e+02 7.8955568567e+02 0.0000000000e+00 0.0000e+00 1.0000e+00
       -2 -1    0    0    0  501 -0.0000000000e+00 -0.0000000000e+00 -1.3599769761e+02 1.3599769761e+02 0.0000000000e+00 0.0000e+00 -1.0000e+00
      -13  1    1    2    0    0 +5.5550167913e+01 +1.1320779393e+02 +7.5391652431e+02 7.6438992104e+02 0.0000000000e+00 0.0000e+00 1.0000e+00
       13  1    1    2    0    0 -5.5550167913e+01 -1.1320779393e+02 -1.0035853626e+02 1.6116346224e+02 0.0000000000e+00 0.0000e+00 -1.0000e+00
<mgrwt>
<rscale>  0 0.65537090E+03</rscale>
<asrwt>0</asrwt>
<pdfrwt beam="1">  1        2 0.12147010E+00 0.65537090E+03</pdfrwt>
<pdfrwt beam="2">  1       -2 0.20922723E-01 0.65537090E+03</pdfrwt>
<totfact> 0.79188987E+02</totfact>
</mgrwt>
<rwgt>
<wgt id='morphing_basis_vector_1'> +2.8481428e-04 </wgt>
<wgt id='morphing_basis_vector_2'> +3.5294546e-04 </wgt>
<wgt id='morphing_basis_vector_3'> +1.8967102e-04 </wgt>
<wgt id='morphing_basis_vector_4'> +1.2291619e-05 </wgt>
<wgt id='morphing_basis_vector_5'> +1.2546448e-04 </wgt>
</rwgt>
</event>
<event>
 4      1 +5.9529000e-06 7.35051100e+02 7.81860800e-03 8.98792800e-02
        2 -1    0    0  501    0 +0.0000000000e+00 +0.0000000000e+00 +1.0108910271e+03 1.0108910271e+03 0.0000000000e+00 0.0000e+00 1.0000e+00
       -2 -1    0    0    0  501 -0.0000000000e+00 -0.0000000000e+00 -1.3361976170e+02 1.3361976170e+02 0.0000000000e+00 0.0000e+00 -1.0000e+00
      -13  1    1    2    0    0 -5.5119995021e+01 -2.2545601388e+02 -5.0725935693e+00 2.3215158679e+02 0.0000000000e+00 0.0000e+00 -1.0000e+00
       13  1    1    2    0    0 +5.5119995021e+01 +2.2545601388e+02 +8.8234385893e+02 9.1235920198e+02 0.0000000000e+00 0.0000e+00 1.0000e+00
<mgrwt>
<rscale>  0 0.73505107E+03</rscale>
<asrwt>0</asrwt>
<pdfrwt beam="1">  1        2 0.15552169E+00 0.73505107E+03</pdfrwt>
<pdfrwt beam="2">  1       -2 0.20556887E-01 0.73505107E+03</pdfrwt>
<totfact> 0.58364905E+02</totfact>
</mgrwt>
<rwgt>
<wgt id='morphing_basis_vector_1'> +3.1077140e-04 </wgt>
<wgt id='morphing_basis_vector_2'> +1.8453444e-04 </wgt>
<wgt id='morphing_basis_vector_3'> +2.7017990e-04 </wgt>
<wgt id='morphing_basis_vector_4'> +1.4048476e-04 </wgt>
<wgt id='morphing_basis_vector_5'> +2.1908983e-04 </wgt>
</rwgt>
</event>
<event>
 4      1 +5.9529000e-06 7.01361400e+02 7.81860800e-03 9.03615700e-02
        2 -1    0    0  501    0 +0.0000000000e+00 +0.0000000000e+00 +5.8982420452e+02 5.8982420452e+02 0.0000000000e+00 0.0000e+00 1.0000e+00
       -2 -1    0    0    0  501 -0.0000000000e+00 -0.0000000000e+00 -2.0849762188e+02 2.0849762188e+02 0.0000000000e+00 0.0000e+00 -1.0000e+00
      -13  1    1    2    0    0 +1.9023345969e+02 +8.8424284213e+00 -1.4451101403e+02 2.3906147934e+02 0.0000000000e+00 0.0000e+00 -1.0000e+00
       13  1    1    2    0    0 -1.9023345969e+02 -8.8424284213e+00 +5.2583759667e+02 5.5926034706e+02 0.0000000000e+00 0.0000e+00 1.0000e+00
<mgrwt>
<rscale>  0 0.70136137E+03</rscale>
<asrwt>0</asrwt>
<pdfrwt beam="1">  1        2 0.90742184E-01 0.70136137E+03</pdfrwt>
<pdfrwt beam="2">  1       -2 0.32076558E-01 0.70136137E+03</pdfrwt>
<totfact> 0.53985851E+02</totfact>
</mgrwt>
<rwgt>
<wgt id='morphing_basis_vector_1'> +2.6427102e-04 </wgt>
<wgt id='morphing_basis_vector_2'> +1.5522586e-04 </wgt>
<wgt id='morphing_basis_vector_3'> +2.2534329e-04 </wgt>
<wgt id='morphing_basis_vector_4'> +1.1319632e-04 </wgt>
<wgt id='morphing_basis_vector_5'> +1.7552916e-04 </wgt>
</rwgt>
</event>
<event>
 4      1 +5.9529000e-06 6.82637800e+02 7.81860800e-03 9.06419700e-02
        2 -1    0    0  501    0 +0.0000000000e+00 +0.0000000000e+00 +2.1676031416e+02 2.1676031416e+02 0.0000000000e+00 0.0000e+00 -1.0000e+00
       -2 -1    0    0    0  501 -0.0000000000e+00 -0.0000000000e+00 -5.3745350078e+02 5.3745350078e+02 0.0000000000e+00 0.0000e+00 1.0000e+00
      -13  1    1    2    0    0 -4.5755717948e+01 +2.6012543072e+02 -3.9920878467e+02 4.7867157759e+02 0.0000000000e+00 0.0000e+00 1.0000e+00
       13  1    1    2    0    0 +4.5755717948e+01 -2.6012543072e+02 +7.8515598047e+01 2.7554223736e+02 0.0000000000e+00 0.0000e+00 -1.0000e+00
<mgrwt>
<rscale>  0 0.68263779E+03</rscale>
<asrwt>0</asrwt>
<pdfrwt beam="1">  1        2 0.33347741E-01 0.68263779E+03</pdfrwt>
<pdfrwt beam="2">  1       -2 0.82685152E-01 0.68263779E+03</pdfrwt>
<totfact> 0.25656551E+02</totfact>
</mgrwt>
<rwgt>
<wgt id='morphing_basis_vector_1'> +2.4135886e-04 </wgt>
<wgt id='morphing_basis_vector_2'> +1.4195957e-04 </wgt>
<wgt id='morphing_basis_vector_3'> +2.0318416e-04 </wgt>
<wgt id='morphing_basis_vector_4'> +9.9370136e-05 </wgt>
<wgt id='morphing_basis_vector_5'> +1.5417539e-04 </wgt>
</rwgt>
</event>
<event>
 4      1 +5.9529000e-06 7.00426000e+02 7.81860800e-03 9.03753600e-02
        2 -1    0    0  501    0 +0.0000000000e+00 +0.0000000000e+00 +1.4677726762e+02 1.4677726762e+02 0.0000000000e+00 0.0000e+00 -1.0000e+00
       -2 -1    0    0    0  501 -0.0000000000e+00 -0.0000000000e+00 -8.3561392560e+02 8.3561392560e+02 0.0000000000e+00 0.0000e+00 1.0000e+00
      -13  1    1    2    0    0 -3.5014401801e+02 -1.3775508387e+00 -3.5397201285e+02 4.9789448368e+02 0.0000000000e+00 0.0000e+00 1.0000e+00
       13  1    1    2    0    0 +3.5014401801e+02 +1.3775508387e+00 -3.3486464513e+02 4.8449670954e+02 0.0000000000e+00 0.0000e+00 -1.0000e+00
<mgrwt>
<rscale>  0 0.70042595E+03</rscale>
<asrwt>0</asrwt>
<pdfrwt beam="1">  1        2 0.22581118E-01 0.70042595E+03</pdfrwt>
<pdfrwt beam="2">  1       -2 0.12855599E+00 0.70042595E+03</pdfrwt>
<totfact> 0.13711141E+02</totfact>
</mgrwt>
<rwgt>
<wgt id='morphing_basis_vector_1'> +2.7149817e-04 </wgt>
<wgt id='morphing_basis_vector_2'> +1.8046695e-04 </wgt>
<wgt id='morphing_basis_vector_3'> +2.2713696e-04 </wgt>
<wgt id='morphing_basis_vector_4'> +1.0362211e-04 </wgt>
<wgt id='morphing_basis_vector_5'> +1.7418490e-04 </wgt>
</rwgt>
</event>
<event>
 4      1 +5.9529000e-06 7.10165100e+02 7.81860800e-03 9.02328600e-02
        2 -1    0    0  501    0 +0.0000000000e+00 +0.0000000000e+00 +5.2258132373e+02 5.2258132373e+02 0.0000000000e+00 0.0000e+00 -1.0000e+00
       -2 -1    0    0    0  501 -0.0000000000e+00 -0.0000000000e+00 -2.4127078926e+02 2.4127078926e+02 0.0000000000e+00 0.0000e+00 1.0000e+00
      -13  1    1    2    0    0 -3.5298680856e+01 -1.5149947630e+02 -2.0267034846e+02 2.5548651302e+02 0.0000000000e+00 0.0000e+00 1.0000e+00
       13  1    1    2    0    0 +3.5298680856e+01 +1.5149947630e+02 +4.8398088293e+02 5.0836559997e+02 0.0000000000e+00 0.0000e+00 -1.0000e+00
<mgrwt>
<rscale>  0 0.71016507E+03</rscale>
<asrwt>0</asrwt>
<pdfrwt beam="1">  1        2 0.80397126E-01 0.71016507E+03</pdfrwt>
<pdfrwt beam="2">  1       -2 0.37118583E-01 0.71016507E+03</pdfrwt>
<totfact> 0.47712851E+02</totfact>
</mgrwt>
<rwgt>
<wgt id='morphing_basis_vector_1'> +2.7577762e-04 </wgt>
<wgt id='morphing_basis_vector_2'> +1.6227290e-04 </wgt>
<wgt id='morphing_basis_vector_3'> +2.3642959e-04 </wgt>
<wgt id='morphing_basis_vector_4'> +1.1999879e-04 </wgt>
<wgt id='morphing_basis_vector_5'> +1.8625731e-04 </wgt>
</rwgt>
</event>
<event>
 4      1 +5.9529000e-06 6.82966700e+02 7.81860800e-03 9.06369700e-02
        2 -1    0    0  501    0 +0.0000000000e+00 +0.0000000000e+00 +5.0783399959e+02 5.0783399959e+02 0.0000000000e+00 0.0000e+00 1.0000e+00
       -2 -1    0    0    0  501 -0.0000000000e+00 -0.0000000000e+00 -2.2962399033e+02 2.2962399033e+02 0.0000000000e+00 0.0000e+00 -1.0000e+00
      -13  1    1    2    0    0 -2.9862563765e+02 +1.0582609075e+02 +1.5246635166e+00 3.1682606829e+02 0.0000000000e+00 0.0000e+00 -1.0000e+00
       13  1    1    2    0    0 +2.9862563765e+02 -1.0582609075e+02 +2.7668534575e+02 4.2063192164e+02 0.0000000000e+00 0.0000e+00 1.0000e+00
<mgrwt>
<rscale>  0 0.68296667E+03</rscale>
<asrwt>0</asrwt>
<pdfrwt beam="1">  1        2 0.78128307E-01 0.68296667E+03</pdfrwt>
<pdfrwt beam="2">  1       -2 0.35326768E-01 0.68296667E+03</pdfrwt>
<totfact> 0.53997014E+02</totfact>
</mgrwt>
<rwgt>
<wgt id='morphing_basis_vector_1'> +2.4317503e-04 </wgt>
<wgt id='morphing_basis_vector_2'> +1.4659057e-04 </wgt>
<wgt id='morphing_basis_vector_3'> +2.0398530e-04 </wgt>
<wgt id='morphing_basis_vector_4'> +9.8160985e-05 </wgt>
<wgt id='morphing_basis_vector_5'> +1.5450202e-04 </wgt>
</rwgt>
</event>
<event>
 4      1 +5.9529000e-06 6.58016100e+02 7.81860800e-03 9.10253200e-02
        2 -1    0    0  501    0 +0.0000000000e+00 +0.0000000000e+00 +5.0454771288e+02 5.0454771288e+02 0.0000000000e+00 0.0000e+00 -1.0000e+00
       -2 -1    0    0    0  501 -0.0000000000e+00 -0.0000000000e+00 -2.1454122924e+02 2.1454122924e+02 0.0000000000e+00 0.0000e+00 1.0000e+00
      -13  1    1    2    0    0 -2.4263788196e+02 +1.8786385550e+02 +2.7467706669e+02 4.1184154833e+02 0.0000000000e+00 0.0000e+00 1.0000e+00
       13  1    1    2    0    0 +2.4263788196e+02 -1.8786385550e+02 +1.5329416953e+01 3.0724739379e+02 0.0000000000e+00 0.0000e+00 -1.0000e+00
<mgrwt>
<rscale>  0 0.65801607E+03</rscale>
<asrwt>0</asrwt>
<pdfrwt beam="1">  1        2 0.77622725E-01 0.65801607E+03</pdfrwt>
<pdfrwt beam="2">  1       -2 0.33006343E-01 0.65801607E+03</pdfrwt>
<totfact> 0.61513440E+02</totfact>
</mgrwt>
<rwgt>
<wgt id='morphing_basis_vector_1'> +2.3764599e-04 </wgt>
<wgt id='morphing_basis_vector_2'> +2.0004517e-04 </wgt>
<wgt id='morphing_basis_vector_3'> +1.8191543e-04 </wgt>
<wgt id='morphing_basis_vector_4'> +6.0516099e-05 </wgt>
<wgt id='morphing_basis_vector_5'> +1.2864058e-04 </wgt>
</rwgt>
</event>
<event>
 4      1 +5.9529000e-06 6.65274000e+02 7.81860800e-03 9.09105200e-02
        2 -1    0    0  501    0 +0.0000000000e+00 +0.0000000000e+00 +1.4036919130e+03 1.4036919130e+03 0.0000000000e+00 0.0000e+00 1.0000e+00
       -2 -1    0    0    0  501 -0.0000000000e+00 -0.0000000000e+00 -7.8825971266e+01 7.8825971266e+01 0.0000000000e+00 0.0000e+00 -1.0000e+00
      -13  1    1    2    0    0 +3.3167593668e+02 +1.3088379435e+01 +7.1059730753e+02 7.8430145105e+02 0.0000000000e+00 0.0000e+00 -1.0000e+00
       13  1    1    2    0    0 -3.3167593668e+02 -1.3088379435e+01 +6.1426863419e+02 6.9821643320e+02 0.0000000000e+00 0.0000e+00 1.0000e+00
<mgrwt>
<rscale>  0 0.66527401E+03</rscale>
<asrwt>0</asrwt>
<pdfrwt beam="1">  1        2 0.21595258E+00 0.66527401E+03</pdfrwt>
<pdfrwt beam="2">  1       -2 0.12127074E-01 0.66527401E+03</pdfrwt>
<totfact> 0.81837794E+02</totfact>
</mgrwt>
<rwgt>
<wgt id='morphing_basis_vector_1'> +2.3039264e-04 </wgt>
<wgt id='morphing_basis_vector_2'> +1.5780802e-04 </wgt>
<wgt id='morphing_basis_vector_3'> +1.8630890e-04 </wgt>
<wgt id='morphing_basis_vector_4'> +7.9185547e-05 </wgt>
<wgt id='morphing_basis_vector_5'> +1.3593480e-04 </wgt>
</rwgt>
</event>
<event>
 4      1 +5.9529000e-06 7.14798400e+02 7.81860800e-03 9.01658900e-02
        2 -1    0    0  501    0 +0.0000000000e+00 +0.0000000000e+00 +1.3930657870e+02 1.3930657870e+02 0.0000000000e+00 0.0000e+00 -1.0000e+00
       -2 -1    0    0    0  501 -0.0000000000e+00 -0.0000000000e+00 -9.1692852387e+02 9.1692852387e+02 0.0000000000e+00 0.0000e+00 1.0000e+00
      -13  1    1    2    0    0 +3.4678320285e+02 +7.6117628017e+01 -3.2821408199e+02 4.8350487763e+02 0.0000000000e+00 0.0000e+00 -1.0000e+00
       13  1    1    2    0    0 -3.4678320285e+02 -7.6117628017e+01 -4.4940786317e+02 5.7273022494e+02 0.0000000000e+00 0.0000e+00 1.0000e+00
<mgrwt>
<rscale>  0 0.71479836E+03</rscale>
<asrwt>0</asrwt>
<pdfrwt beam="1">  1        2 0.21431781E-01 0.71479836E+03</pdfrwt>
<pdfrwt beam="2">  1       -2 0.14106593E+00 0.71479836E+03</pdfrwt>
<totfact> 0.11328253E+02</totfact>
</mgrwt>
<rwgt>
<wgt id='morphing_basis_vector_1'> +2.9671982e-04 </wgt>
<wgt id='morphing_basis_vector_2'> +2.1144022e-04 </wgt>
<wgt id='morphing_basis_vector_3'> +2.4817206e-04 </wgt>
<wgt id='morphing_basis_vector_4'> +1.0769319e-04 </wgt>
<wgt id='morphing_basis_vector_5'> +1.9162181e-04 </wgt>
</rwgt>
</event>
<event>
 4      1 +5.9529000e-06 7.29199300e+02 7.81860800e-03 8.99610800e-02
        2 -1    0    0  501    0 +0.0000000000e+00 +0.0000000000e+00 +2.5263974568e+02 2.5263974568e+02 0.0000000000e+00 0.0000e+00 1.0000e+00
       -2 -1    0    0    0  501 -0.0000000000e+00 -0.0000000000e+00 -5.2617575390e+02 5.2617575390e+02 0.0000000000e+00 0.0000e+00 -1.0000e+00
      -13  1    1    2    0    0 -3.4870531069e+02 -8.8259627250e+01 -2.0038381002e+02 4.1175092814e+02 0.0000000000e+00 0.0000e+00 -1.0000e+00
       13  1    1    2    0    0 +3.4870531069e+02 +8.8259627250e+01 -7.3152198201e+01 3.6706457144e+02 0.0000000000e+00 0.0000e+00 1.0000e+00
<mgrwt>
<rscale>  0 0.72919931E+03</rscale>
<asrwt>0</asrwt>
<pdfrwt beam="1">  1        2 0.38867654E-01 0.72919931E+03</pdfrwt>
<pdfrwt beam="2">  1       -2 0.80950115E-01 0.72919931E+03</pdfrwt>
<totfact> 0.22558680E+02</totfact>
</mgrwt>
<rwgt>
<wgt id='morphing_basis_vector_1'> +3.0780621e-04 </wgt>
<wgt id='morphing_basis_vector_2'> +1.9620720e-04 </wgt>
<wgt id='morphing_basis_vector_3'> +2.6431074e-04 </wgt>
<wgt id='morphing_basis_vector_4'> +1.2923141e-04 </wgt>
<wgt id='morphing_basis_vector_5'> +2.1082820e-04 </wgt>
</rwgt>
</event>
<event>
 4      1 +5.9529000e-06 6.31389200e+02 7.81860800e-03 9.14601500e-02
        2 -1    0    0  501    0 +0.0000000000e+00 +0.0000000000e+00 +1.3824479787e+02 1.3824479787e+02 0.0000000000e+00 0.0000e+00 1.0000e+00
       -2 -1    0    0    0  501 -0.0000000000e+00 -0.0000000000e+00 -7.2091733598e+02 7.2091733598e+02 0.0000000000e+00 0.0000e+00 -1.0000e+00
      -13  1    1    2    0    0 +1.2627234401e+02 +8.3922994045e+01 -6.6813179204e+02 6.8511886949e+02 0.0000000000e+00 0.0000e+00 -1.0000e+00
       13  1    1    2    0    0 -1.2627234401e+02 -8.3922994045e+01 +8.5459253930e+01 1.7404326437e+02 0.0000000000e+00 0.0000e+00 1.0000e+00
<mgrwt>
<rscale>  0 0.63138917E+03</rscale>
<asrwt>0</asrwt>
<pdfrwt beam="1">  1        2 0.21268431E-01 0.63138917E+03</pdfrwt>
<pdfrwt beam="2">  1       -2 0.11091036E+00 0.63138917E+03</pdfrwt>
<totfact> 0.21619308E+02</totfact>
</mgrwt>
<rwgt>
<wgt id='morphing_basis_vector_1'> +1.8541221e-04 </wgt>
<wgt id='morphing_basis_vector_2'> +1.0649148e-04 </wgt>
<wgt id='morphing_basis_vector_3'> +1.5075089e-04 </wgt>
<wgt id='morphing_basis_vector_4'> +6.8934825e-05 </wgt>
<wgt id='morphing_basis_vector_5'> +1.0518153e-04 </wgt>
</rwgt>
</event>
<event>
 4      1 +5.9529000e-06 6.43717000e+02 7.81860800e-03 9.12560900e-02
        2 -1    0    0  501    0 +0.0000000000e+00 +0.0000000000e+00 +3.5771499321e+02 3.5771499321e+02 0.0000000000e+00 0.0000e+00 1.0000e+00
       -2 -1    0    0    0  501 -0.0000000000e+00 -0.0000000000e+00 -2.8959618843e+02 2.8959618843e+02 0.0000000000e+00 0.0000e+00 -1.0000e+00
      -13  1    1    2    0    0 +2.3537307660e+02 -2.1494906436e+02 -1.0791346039e+01 3.1893579072e+02 0.0000000000e+00 0.0000e+00 -1.0000e+00
       13  1    1    2    0    0 -2.3537307660e+02 +2.1494906436e+02 +7.8910150814e+01 3.2837539091e+02 0.0000000000e+00 0.0000e+00 1.0000e+00
<mgrwt>
<rscale>  0 0.64371701E+03</rscale>
<asrwt>0</asrwt>
<pdfrwt beam="1">  1        2 0.55033076E-01 0.64371701E+03</pdfrwt>
<pdfrwt beam="2">  1       -2 0.44553260E-01 0.64371701E+03</pdfrwt>
<totfact> 0.52227987E+02</totfact>
</mgrwt>
<rwgt>
<wgt id='morphing_basis_vector_1'> +2.0174527e-04 </wgt>
<wgt id='morphing_basis_vector_2'> +1.2646540e-04 </wgt>
<wgt id='morphing_basis_vector_3'> +1.6294335e-04 </wgt>
<wgt id='morphing_basis_vector_4'> +7.1981960e-05 </wgt>
<wgt id='morphing_basis_vector_5'> +1.1574510e-04 </wgt>
</rwgt>
</event>
<event>
 4      1 +5.9529000e-06 7.25621200e+02 7.81860800e-03 9.00115000e-02
        2 -1    0    0  501    0 +0.0000000000e+00 +0.0000000000e+00 +7.4741486998e+02 7.4741486998e+02 0.0000000000e+00 0.0000e+00 -1.0000e+00
       -2 -1    0    0    0  501 -0.0000000000e+00 -0.0000000000e+00 -1.7611573920e+02 1.7611573920e+02 0.0000000000e+00 0.0000e+00 1.0000e+00
      -13  1    1    2    0    0 +2.7119139176e+02 +1.5430528513e+02 +5.0014235458e+01 3.1600049958e+02 0.0000000000e+00 0.0000e+00 1.0000e+00
       13  1    1    2    0    0 -2.7119139176e+02 -1.5430528513e+02 +5.2128489532e+02 6.0753010960e+02 0.0000000000e+00 0.0000e+00 -1.0000e+00
<mgrwt>
<rscale>  0 0.72562117E+03</rscale>
<asrwt>0</asrwt>
<pdfrwt beam="1">  1        2 0.11498690E+00 0.72562117E+03</pdfrwt>
<pdfrwt beam="2">  1       -2 0.27094729E-01 0.72562117E+03</pdfrwt>
<totfact> 0.54549686E+02</totfact>
</mgrwt>
<rwgt>
<wgt id='morphing_basis_vector_1'> +2.9818559e-04 </wgt>
<wgt id='morphing_basis_vector_2'> +1.7910621e-04 </wgt>
<wgt id='morphing_basis_vector_3'> +2.5742504e-04 </wgt>
<wgt id='morphing_basis_vector_4'> +1.3126505e-04 </wgt>
<wgt id='morphing_basis_vector_5'> +2.0616448e-04 </wgt>
</rwgt>
</event>
<event>
 4      1 +5.9529000e-06 6.42352400e+02 7.81860800e-03 9.12784400e-02
        2 -1    0    0  501    0 +0.0000000000e+00 +0.0000000000e+00 +1.7403211908e+02 1.7403211908e+02 0.0000000000e+00 0.0000e+00 -1.0000e+00
       -2 -1    0    0    0  501 -0.0000000000e+00 -0.0000000000e+00 -5.9273055087e+02 5.9273055087e+02 0.0000000000e+00 0.0000e+00 1.0000e+00
      -13  1    1    2    0    0 +2.9389483659e+02 -7.1969685210e+01 -3.3791429602e+02 4.5358558401e+02 0.0000000000e+00 0.0000e+00 1.0000e+00
       13  1    1    2    0    0 -2.9389483659e+02 +7.1969685210e+01 -8.0784135769e+01 3.1317708594e+02 0.0000000000e+00 0.0000e+00 -1.0000e+00
<mgrwt>
<rscale>  0 0.64235241E+03</rscale>
<asrwt>0</asrwt>
<pdfrwt beam="1">  1        2 0.26774172E-01 0.64235241E+03</pdfrwt>
<pdfrwt beam="2">  1       -2 0.91189317E-01 0.64235241E+03</pdfrwt>
<totfact> 0.26424747E+02</totfact>
</mgrwt>
<rwgt>
<wgt id='morphing_basis_vector_1'> +1.9809680e-04 </wgt>
<wgt id='morphing_basis_vector_2'> +1.1863773e-04 </wgt>
<wgt id='morphing_basis_vector_3'> +1.6123678e-04 </wgt>
<wgt id='morphing_basis_vector_4'> +7.3263380e-05 </wgt>
<wgt id='morphing_basis_vector_5'> +1.1455890e-04 </wgt>
</rwgt>
</event>
<event>
 4      1 +5.9529000e-06 6.56444400e+02 7.81860800e-03 9.10503800e-02
        2 -1    0    0  501    0 +0.0000000000e+00 +0.0000000000e+00 +4.4965636030e+01 4.4965636030e+01 0.0000000000e+00 0.0000e+00 -1.0000e+00
       -2 -1    0    0    0  501 -0.0000000000e+00 -0.0000000000e+00 -2.3958255991e+03 2.3958255991e+03 0.0000000000e+00 0.0000e+00 1.0000e+00
      -13  1    1    2    0    0 -2.4032715637e+02 +1.8283316978e+02 -1.6536880130e+03 1.6810321693e+03 0.0000000000e+00 0.0000e+00 1.0000e+00
       13  1    1    2    0    0 +2.4032715637e+02 -1.8283316978e+02 -6.9717195005e+02 7.5975906575e+02 0.0000000000e+00 0.0000e+00 -1.0000e+00
<mgrwt>
<rscale>  0 0.65644443E+03</rscale>
<asrwt>0</asrwt>
<pdfrwt beam="1">  1        2 0.69177912E-02 0.65644443E+03</pdfrwt>
<pdfrwt beam="2">  1       -2 0.36858850E+00 0.65644443E+03</pdfrwt>
<totfact> 0.11995191E+01</totfact>
</mgrwt>
<rwgt>
<wgt id='morphing_basis_vector_1'> +2.1257998e-04 </wgt>
<wgt id='morphing_basis_vector_2'> +1.2678592e-04 </wgt>
<wgt id='morphing_basis_vector_3'> +1.7512762e-04 </wgt>
<wgt id='morphing_basis_vector_4'> +8.1611601e-05 </wgt>
<wgt id='morphing_basis_vector_5'> +1.2747544e-04 </wgt>
</rwgt>
</event>
<event>
 4      1 +5.9529000e-06 6.44065600e+02 7.81860800e-03 9.12503900e-02
        2 -1    0    0  501    0 +0.0000000000e+00 +0.0000000000e+00 +9.8387722538e+02 9.8387722538e+02 0.0000000000e+00 0.0000e+00 1.0000e+00
       -2 -1    0    0    0  501 -0.0000000000e+00 -0.0000000000e+00 -1.0540454245e+02 1.0540454245e+02 0.0000000000e+00 0.0000e+00 -1.0000e+00
      -13  1    1    2    0    0 -1.1023016058e+02 +2.0764197136e+02 +6.7008515046e+01 2.4445044009e+02 0.0000000000e+00 0.0000e+00 -1.0000e+00
       13  1    1    2    0    0 +1.1023016058e+02 -2.0764197136e+02 +8.1146416788e+02 8.4483132774e+02 0.0000000000e+00 0.0000e+00 1.0000e+00
<mgrwt>
<rscale>  0 0.64406561E+03</rscale>
<asrwt>0</asrwt>
<pdfrwt beam="1">  1        2 0.15136572E+00 0.64406561E+03</pdfrwt>
<pdfrwt beam="2">  1       -2 0.16216084E-01 0.64406561E+03</pdfrwt>
<totfact> 0.89969757E+02</totfact>
</mgrwt>
<rwgt>
<wgt id='morphing_basis_vector_1'> +1.9831327e-04 </wgt>
<wgt id='morphing_basis_vector_2'> +1.1496216e-04 </wgt>
<wgt id='morphing_basis_vector_3'> +1.6261594e-04 </wgt>
<wgt id='morphing_basis_vector_4'> +7.5599679e-05 </wgt>
<wgt id='morphing_basis_vector_5'> +1.1609233e-04 </wgt>
</rwgt>
</event>
<event>
 4      1 +5.9529000e-06 6.36186400e+02 7.81860800e-03 9.13801700e-02
        2 -1    0    0  501    0 +0.0000000000e+00 +0.0000000000e+00 +2.4798530493e+03 2.4798530493e+03 0.0000000000e+00 0.0000e+00 1.0000e+00
       -2 -1    0    0    0  501 -0.0000000000e+00 -0.0000000000e+00 -4.0802125017e+01 4.0802125017e+01 0.0000000000e+00 0.0000e+00 -1.0000e+00
      -13  1    1    2    0    0 -2.0625028820e+02 -2.3894772621e+02 +1.0636329185e+03 1.1094819433e+03 0.0000000000e+00 0.0000e+00 -1.0000e+00
       13  1    1    2    0    0 +2.0625028820e+02 +2.3894772621e+02 +1.3754180058e+03 1.4111732310e+03 0.0000000000e+00 0.0000e+00 1.0000e+00
<mgrwt>
<rscale>  0 0.63618637E+03</rscale>
<asrwt>0</asrwt>
<pdfrwt beam="1">  1        2 0.38151574E+00 0.63618637E+03</pdfrwt>
<pdfrwt beam="2">  1       -2 0.62772519E-02 0.63618637E+03</pdfrwt>
<totfact> 0.57873440E+02</totfact>
</mgrwt>
<rwgt>
<wgt id='morphing_basis_vector_1'> +1.9421770e-04 </wgt>
<wgt id='morphing_basis_vector_2'> +1.2203106e-04 </wgt>
<wgt id='morphing_basis_vector_3'> +1.5575423e-04 </wgt>
<wgt id='morphing_basis_vector_4'> +6.7875665e-05 </wgt>
<wgt id='morphing_basis_vector_5'> +1.0919294e-04 </wgt>
</rwgt>
</event>
<event>
 4      1 +5.9529000e-06 6.79129900e+02 7.81860800e-03 9.06955500e-02
        2 -1    0    0  501    0 +0.0000000000e+00 +0.0000000000e+00 +1.9337447207e+03 1.9337447207e+03 0.0000000000e+00 0.0000e+00 -1.0000e+00
       -2 -1    0    0    0  501 -0.0000000000e+00 -0.0000000000e+00 -5.9627492320e+01 5.9627492320e+01 0.0000000000e+00 0.0000e+00 1.0000e+00
      -13  1    1    2    0    0 +2.7210633940e+02 +1.9162158951e+02 +1.1349096071e+03 1.1827005157e+03 0.0000000000e+00 0.0000e+00 1.0000e+00
       13  1    1    2    0    0 -2.7210633940e+02 -1.9162158951e+02 +7.3920762128e+02 8.1067169734e+02 0.0000000000e+00 0.0000e+00 -1.0000e+00
<mgrwt>
<rscale>  0 0.67912988E+03</rscale>
<asrwt>0</asrwt>
<pdfrwt beam="1">  1        2 0.29749914E+00 0.67912988E+03</pdfrwt>
<pdfrwt beam="2">  1       -2 0.91734618E-02 0.67912988E+03</pdfrwt>
<totfact> 0.65021945E+02</totfact>
</mgrwt>
<rwgt>
<wgt id='morphing_basis_vector_1'> +2.5310221e-04 </wgt>
<wgt id='morphing_basis_vector_2'> +1.8851681e-04 </wgt>
<wgt id='morphing_basis_vector_3'> +2.0377882e-04 </wgt>
<wgt id='morphing_basis_vector_4'> +8.1083667e-05 </wgt>
<wgt id='morphing_basis_vector_5'> +1.5005791e-04 </wgt>
</rwgt>
</event>
<event>
 4      1 +5.9529000e-06 7.48327100e+02 7.81860800e-03 8.96966800e-02
        2 -1    0    0  501    0 +0.0000000000e+00 +0.0000000000e+00 +6.3280756375e+02 6.3280756375e+02 0.0000000000e+00 0.0000e+00 1.0000e+00
       -2 -1    0    0    0  501 -0.0000000000e+00 -0.0000000000e+00 -2.2123373155e+02 2.2123373155e+02 0.0000000000e+00 0.0000e+00 -1.0000e+00
      -13  1    1    2    0    0 -4.9298477835e+01 -1.7404376379e+02 +5.7958777181e+02 6.0716023986e+02 0.0000000000e+00 0.0000e+00 1.0000e+00
       13  1    1    2    0    0 +4.9298477835e+01 +1.7404376379e+02 -1.6801393961e+02 2.4688105544e+02 0.0000000000e+00 0.0000e+00 -1.0000e+00
<mgrwt>
<rscale>  0 0.74832714E+03</rscale>
<asrwt>0</asrwt>
<pdfrwt beam="1">  1        2 0.97355009E-01 0.74832714E+03</pdfrwt>
<pdfrwt beam="2">  1       -2 0.34035959E-01 0.74832714E+03</pdfrwt>
<totfact> 0.44606133E+02</totfact>
</mgrwt>
<rwgt>
<wgt id='morphing_basis_vector_1'> +4.4600533e-04 </wgt>
<wgt id='morphing_basis_vector_2'> +5.5126840e-04 </wgt>
<wgt id='morphing_basis_vector_3'> +3.4461257e-04 </wgt>
<wgt id='morphing_basis_vector_4'> +1.8686409e-05 </wgt>
<wgt id='morphing_basis_vector_5'> +2.3349239e-04 </wgt>
</rwgt>
</event>
<event>
 4      1 +5.9529000e-06 6.29538700e+02 7.81860800e-03 9.14912100e-02
        2 -1    0    0  501    0 +0.0000000000e+00 +0.0000000000e+00 +1.6239192929e+03 1.6239192929e+03 0.0000000000e+00 0.0000e+00 -1.0000e+00
       -2 -1    0    0    0  501 -0.0000000000e+00 -0.0000000000e+00 -6.1012720030e+01 6.1012720030e+01 0.0000000000e+00 0.0000e+00 1.0000e+00
      -13  1    1    2    0    0 -2.1244030089e+02 +2.1554814311e+02 +5.4985329870e+02 6.2763885598e+02 0.0000000000e+00 0.0000e+00 1.0000e+00
       13  1    1    2    0    0 +2.1244030089e+02 -2.1554814311e+02 +1.0130532742e+03 1.0572931570e+03 0.0000000000e+00 0.0000e+00 -1.0000e+00
<mgrwt>
<rscale>  0 0.62953867E+03</rscale>
<asrwt>0</asrwt>
<pdfrwt beam="1">  1        2 0.24983370E+00 0.62953867E+03</pdfrwt>
<pdfrwt beam="2">  1       -2 0.93865736E-02 0.62953867E+03</pdfrwt>
<totfact> 0.92886805E+02</totfact>
</mgrwt>
<rwgt>
<wgt id='morphing_basis_vector_1'> +1.8576351e-04 </wgt>
<wgt id='morphing_basis_vector_2'> +1.1203729e-04 </wgt>
<wgt id='morphing_basis_vector_3'> +1.4935399e-04 </wgt>
<wgt id='morphing_basis_vector_4'> +6.6121658e-05 </wgt>
<wgt id='morphing_basis_vector_5'> +1.0364016e-04 </wgt>
</rwgt>
</event>
<event>
 4      1 +5.9529000e-06 7.17252300e+02 7.81860800e-03 9.01306400e-02
        2 -1    0    0  501    0 +0.0000000000e+00 +0.0000000000e+00 +1.0902353287e+03 1.0902353287e+03 0.0000000000e+00 0.0000e+00 -1.0000e+00
       -2 -1    0    0    0  501 -0.0000000000e+00 -0.0000000000e+00 -1.1796786236e+02 1.1796786236e+02 0.0000000000e+00 0.0000e+00 1.0000e+00
      -13  1    1    2    0    0 -2.8487897607e+02 -1.9367778228e+02 +3.1814356527e+02 4.6891624250e+02 0.0000000000e+00 0.0000e+00 1.0000e+00
       13  1    1    2    0    0 +2.8487897607e+02 +1.9367778228e+02 +6.5412390108e+02 7.3928694856e+02 0.0000000000e+00 0.0000e+00 -1.0000e+00
<mgrwt>
<rscale>  0 0.71725234E+03</rscale>
<asrwt>0</asrwt>
<pdfrwt beam="1">  1        2 0.16772851E+00 0.71725234E+03</pdfrwt>
<pdfrwt beam="2">  1       -2 0.18148903E-01 0.71725234E+03</pdfrwt>
<totfact> 0.64309741E+02</totfact>
</mgrwt>
<rwgt>
<wgt id='morphing_basis_vector_1'> +2.8872615e-04 </wgt>
<wgt id='morphing_basis_vector_2'> +1.7859814e-04 </wgt>
<wgt id='morphing_basis_vector_3'> +2.4700317e-04 </wgt>
<wgt id='morphing_basis_vector_4'> +1.2197377e-04 </wgt>
<wgt id='morphing_basis_vector_5'> +1.9511647e-04 </wgt>
</rwgt>
</event>
<event>
 4      1 +5.9529000e-06 6.71713600e+02 7.81860800e-03 9.08099400e-02
        2 -1    0    0  501    0 +0.0000000000e+00 +0.0000000000e+00 +5.1688398920e+02 5.1688398920e+02 0.0000000000e+00 0.0000e+00 1.0000e+00
       -2 -1    0    0    0  501 -0.0000000000e+00 -0.0000000000e+00 -2.1823035323e+02 2.1823035323e+02 0.0000000000e+00 0.0000e+00 -1.0000e+00
      -13  1    1    2    0    0 +2.5993955059e+02 -2.0729969229e+02 +9.7322799713e+01 3.4642958841e+02 0.0000000000e+00 0.0000e+00 -1.0000e+00
       13  1    1    2    0    0 -2.5993955059e+02 +2.0729969229e+02 +2.0133083626e+02 3.8868475402e+02 0.0000000000e+00 0.0000e+00 1.0000e+00
<mgrwt>
<rscale>  0 0.67171356E+03</rscale>
<asrwt>0</asrwt>
<pdfrwt beam="1">  1        2 0.79520613E-01 0.67171356E+03</pdfrwt>
<pdfrwt beam="2">  1       -2 0.33573901E-01 0.67171356E+03</pdfrwt>
<totfact> 0.58018917E+02</totfact>
</mgrwt>
<rwgt>
<wgt id='morphing_basis_vector_1'> +2.3272825e-04 </wgt>
<wgt id='morphing_basis_vector_2'> +1.4697150e-04 </wgt>
<wgt id='morphing_basis_vector_3'> +1.9209720e-04 </wgt>
<wgt id='morphing_basis_vector_4'> +8.7993414e-05 </wgt>
<wgt id='morphing_basis_vector_5'> +1.4253166e-04 </wgt>
</rwgt>
</event>
<event>
 4      1 +5.9529000e-06 7.02503600e+02 7.81860800e-03 9.03447600e-02
        2 -1    0    0  501    0 +0.0000000000e+00 +0.0000000000e+00 +3.1987797076e+02 3.1987797076e+02 0.0000000000e+00 0.0000e+00 -1.0000e+00
       -2 -1    0    0    0  501 -0.0000000000e+00 -0.0000000000e+00 -3.8570280111e+02 3.8570280111e+02 0.0000000000e+00 0.0000e+00 1.0000e+00
      -13  1    1    2    0    0 +1.8923169273e+02 +2.9166243519e+02 -8.3153718634e+01 3.5747748259e+02 0.0000000000e+00 0.0000e+00 1.0000e+00
       13  1    1    2    0    0 -1.8923169273e+02 -2.9166243519e+02 +1.7328888283e+01 3.4810328927e+02 0.0000000000e+00 0.0000e+00 -1.0000e+00
<mgrwt>
<rscale>  0 0.70250361E+03</rscale>
<asrwt>0</asrwt>
<pdfrwt beam="1">  1        2 0.49211995E-01 0.70250361E+03</pdfrwt>
<pdfrwt beam="2">  1       -2 0.59338893E-01 0.70250361E+03</pdfrwt>
<totfact> 0.33627860E+02</totfact>
</mgrwt>
<rwgt>
<wgt id='morphing_basis_vector_1'> +2.7109759e-04 </wgt>
<wgt id='morphing_basis_vector_2'> +1.7263157e-04 </wgt>
<wgt id='morphing_basis_vector_3'> +2.2866352e-04 </wgt>
<wgt id='morphing_basis_vector_4'> +1.0839983e-04 </wgt>
<wgt id='morphing_basis_vector_5'> +1.7674569e-04 </wgt>
</rwgt>
</event>
<event>
 4      1 +5.9529000e-06 6.78341600e+02 7.81860800e-03 9.07076300e-02
        2 -1    0    0  501    0 +0.0000000000e+00 +0.0000000000e+00 +1.4026530171e+02 1.4026530171e+02 0.0000000000e+00 0.0000e+00 1.0000e+00
       -2 -1    0    0    0  501 -0.0000000000e+00 -0.0000000000e+00 -8.2013759767e+02 8.2013759767e+02 0.0000000000e+00 0.0000e+00 -1.0000e+00
      -13  1    1    2    0    0 -4.8575549489e+01 -2.4868628214e+02 -6.5914525555e+02 7.0617060180e+02 0.0000000000e+00 0.0000e+00 -1.0000e+00
       13  1    1    2    0    0 +4.8575549489e+01 +2.4868628214e+02 -2.0727040411e+01 2.5423229759e+02 0.0000000000e+00 0.0000e+00 1.0000e+00
<mgrwt>
<rscale>  0 0.67834165E+03</rscale>
<asrwt>0</asrwt>
<pdfrwt beam="1">  1        2 0.21579276E-01 0.67834165E+03</pdfrwt>
<pdfrwt beam="2">  1       -2 0.12617502E+00 0.67834165E+03</pdfrwt>
<totfact> 0.15218039E+02</totfact>
</mgrwt>
<rwgt>
<wgt id='morphing_basis_vector_1'> +2.3615310e-04 </wgt>
<wgt id='morphing_basis_vector_2'> +1.3849797e-04 </wgt>
<wgt id='morphing_basis_vector_3'> +1.9829032e-04 </wgt>
<wgt id='morphing_basis_vector_4'> +9.6559793e-05 </wgt>
<wgt id='morphing_basis_vector_5'> +1.4955295e-04 </wgt>
</rwgt>
</event>
<event>
 4      1 +5.9529000e-06 6.28923300e+02 7.81860800e-03 9.15015600e-02
        2 -1    0    0  501    0 +0.0000000000e+00 +0.0000000000e+00 +2.2595946796e+03 2.2595946796e+03 0.0000000000e+00 0.0000e+00 1.0000e+00
       -2 -1    0    0    0  501 -0.0000000000e+00 -0.0000000000e+00 -4.3762766857e+01 4.3762766857e+01 0.0000000000e+00 0.0000e+00 -1.0000e+00
      -13  1    1    2    0    0 +2.7960542894e+02 -1.4348434568e+02 +1.0679369284e+03 1.1132188628e+03 0.0000000000e+00 0.0000e+00 -1.0000e+00
       13  1    1    2    0    0 -2.7960542894e+02 +1.4348434568e+02 +1.1478949844e+03 1.1901385837e+03 0.0000000000e+00 0.0000e+00 1.0000e+00
<mgrwt>
<rscale>  0 0.62892325E+03</rscale>
<asrwt>0</asrwt>
<pdfrwt beam="1">  1        2 0.34762986E+00 0.62892325E+03</pdfrwt>
<pdfrwt beam="2">  1       -2 0.67327351E-02 0.62892325E+03</pdfrwt>
<totfact> 0.69484106E+02</totfact>
</mgrwt>
<rwgt>
<wgt id='morphing_basis_vector_1'> +1.8852109e-04 </wgt>
<wgt id='morphing_basis_vector_2'> +1.2205035e-04 </wgt>
<wgt id='morphing_basis_vector_3'> +1.4921436e-04 </wgt>
<wgt id='morphing_basis_vector_4'> +6.2924863e-05 </wgt>
<wgt id='morphing_basis_vector_5'> +1.0311876e-04 </wgt>
</rwgt>
</event>
<event>
 4      1 +5.9529000e-06 6.30146700e+02 7.81860800e-03 9.14809900e-02
        2 -1    0    0  501    0 +0.0000000000e+00 +0.0000000000e+00 +1.0661927297e+03 1.0661927297e+03 0.0000000000e+00 0.0000e+00 -1.0000e+00
       -2 -1    0    0    0  501 -0.0000000000e+00 -0.0000000000e+00 -9.3108138508e+01 9.3108138508e+01 0.0000000000e+00 0.0000e+00 1.0000e+00
      -13  1    1    2    0    0 -1.8356432470e+02 -2.5596638894e+02 +4.7270550919e+02 5.6803622419e+02 0.0000000000e+00 0.0000e+00 1.0000e+00
       13  1    1    2    0    0 +1.8356432470e+02 +2.5596638894e+02 +5.0037908204e+02 5.9126464406e+02 0.0000000000e+00 0.0000e+00 -1.0000e+00
<mgrwt>
<rscale>  0 0.63014671E+03</rscale>
<asrwt>0</asrwt>
<pdfrwt beam="1">  1        2 0.16402964E+00 0.63014671E+03</pdfrwt>
<pdfrwt beam="2">  1       -2 0.14324330E-01 0.63014671E+03</pdfrwt>
<totfact> 0.97999300E+02</totfact>
</mgrwt>
<rwgt>
<wgt id='morphing_basis_vector_1'> +1.8996461e-04 </wgt>
<wgt id='morphing_basis_vector_2'> +1.2358201e-04 </wgt>
<wgt id='morphing_basis_vector_3'> +1.5036949e-04 </wgt>
<wgt id='morphing_basis_vector_4'> +6.3312692e-05 </wgt>
<wgt id='morphing_basis_vector_5'> +1.0412180e-04 </wgt>
</rwgt>
</event>
<event>
 4      1 +5.9529000e-06 6.35553900e+02 7.81860800e-03 9.13906700e-02
        2 -1    0    0  501    0 +0.0000000000e+00 +0.0000000000e+00 +4.6353369076e+02 4.6353369076e+02 0.0000000000e+00 0.0000e+00 -1.0000e+00
       -2 -1    0    0    0  501 -0.0000000000e+00 -0.0000000000e+00 -2.1785298424e+02 2.1785298424e+02 0.0000000000e+00 0.0000e+00 1.0000e+00
      -13  1    1    2    0    0 -2.3538198698e+02 +1.6936760212e+02 -1.6502109643e+01 2.9045203401e+02 0.0000000000e+00 0.0000e+00 1.0000e+00
       13  1    1    2    0    0 +2.3538198698e+02 -1.6936760212e+02 +2.6218281616e+02 3.9093464099e+02 0.0000000000e+00 0.0000e+00 -1.0000e+00
<mgrwt>
<rscale>  0 0.63555392E+03</rscale>
<asrwt>0</asrwt>
<pdfrwt beam="1">  1        2 0.71312875E-01 0.63555392E+03</pdfrwt>
<pdfrwt beam="2">  1       -2 0.33515844E-01 0.63555392E+03</pdfrwt>
<totfact> 0.65933763E+02</totfact>
</mgrwt>
<rwgt>
<wgt id='morphing_basis_vector_1'> +1.9071064e-04 </wgt>
<wgt id='morphing_basis_vector_2'> +1.1273483e-04 </wgt>
<wgt id='morphing_basis_vector_3'> +1.5473677e-04 </wgt>
<wgt id='morphing_basis_vector_4'> +7.0076994e-05 </wgt>
<wgt id='morphing_basis_vector_5'> +1.0867527e-04 </wgt>
</rwgt>
</event>
<event>
 4      1 +5.9529000e-06 6.36871200e+02 7.81860800e-03 9.13688100e-02
        2 -1    0    0  501    0 +0.0000000000e+00 +0.0000000000e+00 +9.5362152405e+02 9.5362152405e+02 0.0000000000e+00 0.0000e+00 1.0000e+00
       -2 -1    0    0    0  501 -0.0000000000e+00 -0.0000000000e+00 -1.0633278450e+02 1.0633278450e+02 0.0000000000e+00 0.0000e+00 -1.0000e+00
      -13  1    1    2    0    0 -2.8699923356e+02 -3.0226523191e+01 +1.9961601164e+02 3.5089707162e+02 0.0000000000e+00 0.0000e+00 -1.0000e+00
       13  1    1    2    0    0 +2.8699923356e+02 +3.0226523191e+01 +6.4767272791e+02 7.0905723693e+02 0.0000000000e+00 0.0000e+00 1.0000e+00
<mgrwt>
<rscale>  0 0.63687120E+03</rscale>
<asrwt>0</asrwt>
<pdfrwt beam="1">  1        2 0.14671100E+00 0.63687120E+03</pdfrwt>
<pdfrwt beam="2">  1       -2 0.16358891E-01 0.63687120E+03</pdfrwt>
<totfact> 0.92656883E+02</totfact>
</mgrwt>
<rwgt>
<wgt id='morphing_basis_vector_1'> +1.9194849e-04 </wgt>
<wgt id='morphing_basis_vector_2'> +1.1331730e-04 </wgt>
<wgt id='morphing_basis_vector_3'> +1.5595150e-04 </wgt>
<wgt id='morphing_basis_vector_4'> +7.0842831e-05 </wgt>
<wgt id='morphing_basis_vector_5'> +1.0979982e-04 </wgt>
</rwgt>
</event>
<event>
 4      1 +5.9529000e-06 7.33520600e+02 7.81860800e-03 8.99006000e-02
        2 -1    0    0  501    0 +0.0000000000e+00 +0.0000000000e+00 +1.0944336556e+03 1.0944336556e+03 0.0000000000e+00 0.0000e+00 -1.0000e+00
       -2 -1    0    0    0  501 -0.0000000000e+00 -0.0000000000e+00 -1.2290658407e+02 1.2290658407e+02 0.0000000000e+00 0.0000e+00 1.0000e+00
      -13  1    1    2    0    0 -2.1202184883e+02 +2.6197702096e+02 +2.4568005010e+02 4.1706583522e+02 0.0000000000e+00 0.0000e+00 1.0000e+00
       13  1    1    2    0    0 +2.1202184883e+02 -2.6197702096e+02 +7.2584702147e+02 8.0027440448e+02 0.0000000000e+00 0.0000e+00 -1.0000e+00
<mgrwt>
<rscale>  0 0.73352056E+03</rscale>
<asrwt>0</asrwt>
<pdfrwt beam="1">  1        2 0.16837440E+00 0.73352056E+03</pdfrwt>
<pdfrwt beam="2">  1       -2 0.18908706E-01 0.73352056E+03</pdfrwt>
<totfact> 0.59709186E+02</totfact>
</mgrwt>
<rwgt>
<wgt id='morphing_basis_vector_1'> +3.1054261e-04 </wgt>
<wgt id='morphing_basis_vector_2'> +1.8931100e-04 </wgt>
<wgt id='morphing_basis_vector_3'> +2.6889040e-04 </wgt>
<wgt id='morphing_basis_vector_4'> +1.3687712e-04 </wgt>
<wgt id='morphing_basis_vector_5'> +2.1688565e-04 </wgt>
</rwgt>
</event>
<event>
 4      1 +5.9529000e-06 6.29170700e+02 7.81860800e-03 9.14973900e-02
        2 -1    0    0  501    0 +0.0000000000e+00 +0.0000000000e+00 +1.5256375609e+03 1.5256375609e+03 0.0000000000e+00 0.0000e+00 -1.0000e+00
       -2 -1    0    0    0  501 -0.0000000000e+00 -0.0000000000e+00 -6.4867279073e+01 6.4867279073e+01 0.0000000000e+00 0.0000e+00 1.0000e+00
      -13  1    1    2    0    0 -2.9839507677e+02 +9.3714744636e+01 +6.4496168677e+02 7.1679680008e+02 0.0000000000e+00 0.0000e+00 1.0000e+00
       13  1    1    2    0    0 +2.9839507677e+02 -9.3714744636e+01 +8.1580859501e+02 8.7370803985e+02 0.0000000000e+00 0.0000e+00 -1.0000e+00
<mgrwt>
<rscale>  0 0.62917075E+03</rscale>
<asrwt>0</asrwt>
<pdfrwt beam="1">  1        2 0.23471344E+00 0.62917075E+03</pdfrwt>
<pdfrwt beam="2">  1       -2 0.99795825E-02 0.62917075E+03</pdfrwt>
<totfact> 0.95494577E+02</totfact>
</mgrwt>
<rwgt>
<wgt id='morphing_basis_vector_1'> +1.8745343e-04 </wgt>
<wgt id='morphing_basis_vector_2'> +1.1815182e-04 </wgt>
<wgt id='morphing_basis_vector_3'> +1.4927724e-04 </wgt>
<wgt id='morphing_basis_vector_4'> +6.4173144e-05 </wgt>
<wgt id='morphing_basis_vector_5'> +1.0332787e-04 </wgt>
</rwgt>
</event>
<event>
 4      1 +5.9529000e-06 6.89837600e+02 7.81860800e-03 9.05330500e-02
        2 -1    0    0  501    0 +0.0000000000e+00 +0.0000000000e+00 +1.0904885643e+03 1.0904885643e+03 0.0000000000e+00 0.0000e+00 -1.0000e+00
       -2 -1    0    0    0  501 -0.0000000000e+00 -0.0000000000e+00 -1.0909694763e+02 1.0909694763e+02 0.0000000000e+00 0.0000e+00 1.0000e+00
      -13  1    1    2    0    0 +1.6999251973e+02 -7.9216894762e+01 -1.2684847706e+01 1.8797254730e+02 0.0000000000e+00 0.0000e+00 1.0000e+00
       13  1    1    2    0    0 -1.6999251973e+02 +7.9216894762e+01 +9.9407646433e+02 1.0116129646e+03 0.0000000000e+00 0.0000e+00 -1.0000e+00
<mgrwt>
<rscale>  0 0.68983759E+03</rscale>
<asrwt>0</asrwt>
<pdfrwt beam="1">  1        2 0.16776746E+00 0.68983759E+03</pdfrwt>
<pdfrwt beam="2">  1       -2 0.16784147E-01 0.68983759E+03</pdfrwt>
<totfact> 0.73166696E+02</totfact>
</mgrwt>
<rwgt>
<wgt id='morphing_basis_vector_1'> +2.4972695e-04 </wgt>
<wgt id='morphing_basis_vector_2'> +1.4618470e-04 </wgt>
<wgt id='morphing_basis_vector_3'> +2.1142132e-04 </wgt>
<wgt id='morphing_basis_vector_4'> +1.0478429e-04 </wgt>
<wgt id='morphing_basis_vector_5'> +1.6216039e-04 </wgt>
</rwgt>
</event>
<event>
 4      1 +5.9529000e-06 6.25527800e+02 7.81860800e-03 9.15589000e-02
        2 -1    0    0  501    0 +0.0000000000e+00 +0.0000000000e+00 +7.0821435957e+02 7.0821435957e+02 0.0000000000e+00 0.0000e+00 -1.0000e+00
       -2 -1    0    0    0  501 -0.0000000000e+00 -0.0000000000e+00 -1.3812380691e+02 1.3812380691e+02 0.0000000000e+00 0.0000e+00 1.0000e+00
      -13  1    1    2    0    0 +3.8710831795e+01 +2.5523968948e+02 +4.6152199639e+01 2.6225150737e+02 0.0000000000e+00 0.0000e+00 1.0000e+00
       13  1    1    2    0    0 -3.8710831795e+01 -2.5523968948e+02 +5.2393835302e+02 5.8408665911e+02 0.0000000000e+00 0.0000e+00 -1.0000e+00
<mgrwt>
<rscale>  0 0.62552782E+03</rscale>
<asrwt>0</asrwt>
<pdfrwt beam="1">  1        2 0.10895605E+00 0.62552782E+03</pdfrwt>
<pdfrwt beam="2">  1       -2 0.21249817E-01 0.62552782E+03</pdfrwt>
<totfact> 0.88396433E+02</totfact>
</mgrwt>
<rwgt>
<wgt id='morphing_basis_vector_1'> +1.8027202e-04 </wgt>
<wgt id='morphing_basis_vector_2'> +1.0458244e-04 </wgt>
<wgt id='morphing_basis_vector_3'> +1.4557249e-04 </wgt>
<wgt id='morphing_basis_vector_4'> +6.5494584e-05 </wgt>
<wgt id='morphing_basis_vector_5'> +1.0038560e-04 </wgt>
</rwgt>
</event>
<event>
 4      1 +5.9529000e-06 6.87134000e+02 7.81860800e-03 9.05737900e-02
        2 -1    0    0  501    0 +0.0000000000e+00 +0.0000000000e+00 +5.8318725347e+02 5.8318725347e+02 0.0000000000e+00 0.0000e+00 -1.0000e+00
       -2 -1    0    0    0  501 -0.0000000000e+00 -0.0000000000e+00 -2.0240202953e+02 2.0240202953e+02 0.0000000000e+00 0.0000e+00 1.0000e+00
      -13  1    1    2    0    0 -3.1913009138e+02 -1.2539744497e+02 +1.6561341847e+02 3.8078384788e+02 0.0000000000e+00 0.0000e+00 1.0000e+00
       13  1    1    2    0    0 +3.1913009138e+02 +1.2539744497e+02 +2.1517180548e+02 4.0480543512e+02 0.0000000000e+00 0.0000e+00 -1.0000e+00
<mgrwt>
<rscale>  0 0.68713400E+03</rscale>
<asrwt>0</asrwt>
<pdfrwt beam="1">  1        2 0.89721115E-01 0.68713400E+03</pdfrwt>
<pdfrwt beam="2">  1       -2 0.31138774E-01 0.68713400E+03</pdfrwt>
<totfact> 0.57691047E+02</totfact>
</mgrwt>
<rwgt>
<wgt id='morphing_basis_vector_1'> +2.5311003e-04 </wgt>
<wgt id='morphing_basis_vector_2'> +1.6479981e-04 </wgt>
<wgt id='morphing_basis_vector_3'> +2.1033967e-04 </wgt>
<wgt id='morphing_basis_vector_4'> +9.6045950e-05 </wgt>
<wgt id='morphing_basis_vector_5'> +1.5897482e-04 </wgt>
</rwgt>
</event>
<event>
 4      1 +5.9529000e-06 6.46352400e+02 7.81860800e-03 9.12130900e-02
        2 -1    0    0  501    0 +0.0000000000e+00 +0.0000000000e+00 +1.3150142292e+03 1.3150142292e+03 0.0000000000e+00 0.0000e+00 1.0000e+00
       -2 -1    0    0    0  501 -0.0000000000e+00 -0.0000000000e+00 -7.9423369025e+01 7.9423369025e+01 0.0000000000e+00 0.0000e+00 -1.0000e+00
      -13  1    1    2    0    0 -2.4933983087e+00 +3.1038292340e+02 +4.2364083776e+02 5.2518124071e+02 0.0000000000e+00 0.0000e+00 -1.0000e+00
       13  1    1    2    0    0 +2.4933983087e+00 -3.1038292340e+02 +8.1195002238e+02 8.6925635748e+02 0.0000000000e+00 0.0000e+00 1.0000e+00
<mgrwt>
<rscale>  0 0.64635241E+03</rscale>
<asrwt>0</asrwt>
<pdfrwt beam="1">  1        2 0.20230987E+00 0.64635241E+03</pdfrwt>
<pdfrwt beam="2">  1       -2 0.12218981E-01 0.64635241E+03</pdfrwt>
<totfact> 0.90701468E+02</totfact>
</mgrwt>
<rwgt>
<wgt id='morphing_basis_vector_1'> +2.0275238e-04 </wgt>
<wgt id='morphing_basis_vector_2'> +1.2284637e-04 </wgt>
<wgt id='morphing_basis_vector_3'> +1.6520793e-04 </wgt>
<wgt id='morphing_basis_vector_4'> +7.4993627e-05 </wgt>
<wgt id='morphing_basis_vector_5'> +1.1811995e-04 </wgt>
</rwgt>
</event>
<event>
 4      1 +5.9529000e-06 7.03349500e+02 7.81860800e-03 9.03323300e-02
        2 -1    0    0  501    0 +0.0000000000e+00 +0.0000000000e+00 +9.1204345174e+02 9.1204345174e+02 0.0000000000e+00 0.0000e+00 1.0000e+00
       -2 -1    0    0    0  501 -0.0000000000e+00 -0.0000000000e+00 -1.3560225328e+02 1.3560225328e+02 0.0000000000e+00 0.0000e+00 -1.0000e+00
      -13  1    1    2    0    0 +3.3755718735e+02 +6.3383296935e+01 +2.7563842355e+02 4.4038487439e+02 0.0000000000e+00 0.0000e+00 -1.0000e+00
       13  1    1    2    0    0 -3.3755718735e+02 -6.3383296935e+01 +5.0080277491e+02 6.0726083063e+02 0.0000000000e+00 0.0000e+00 1.0000e+00
<mgrwt>
<rscale>  0 0.70334955E+03</rscale>
<asrwt>0</asrwt>
<pdfrwt beam="1">  1        2 0.14031437E+00 0.70334955E+03</pdfrwt>
<pdfrwt beam="2">  1       -2 0.20861886E-01 0.70334955E+03</pdfrwt>
<totfact> 0.65791660E+02</totfact>
</mgrwt>
<rwgt>
<wgt id='morphing_basis_vector_1'> +2.7086699e-04 </wgt>
<wgt id='morphing_basis_vector_2'> +1.6921907e-04 </wgt>
<wgt id='morphing_basis_vector_3'> +2.2925476e-04 </wgt>
<wgt id='morphing_basis_vector_4'> +1.1043656e-04 </wgt>
<wgt id='morphing_basis_vector_5'> +1.7779864e-04 </wgt>
</rwgt>
</event>
<event>
 4      1 +5.9529000e-06 6.32514800e+02 7.81860800e-03 9.14413200e-02
        2 -1    0    0  501    0 +0.0000000000e+00 +0.0000000000e+00 +1.2419596551e+03 1.2419596551e+03 0.0000000000e+00 0.0000e+00 -1.0000e+00
       -2 -1    0    0    0  501 -0.0000000000e+00 -0.0000000000e+00 -8.0533017548e+01 8.0533017548e+01 0.0000000000e+00 0.0000e+00 1.0000e+00
      -13  1    1    2    0    0 +1.6908075735e+02 +2.5122391904e+02 +7.7139363574e+02 8.2870374759e+02 0.0000000000e+00 0.0000e+00 -1.0000e+00
       13  1    1    2    0    0 -1.6908075735e+02 -2.5122391904e+02 +3.9003300180e+02 4.9378892505e+02 0.0000000000e+00 0.0000e+00 1.0000e+00
<mgrwt>
<rscale>  0 0.63251485E+03</rscale>
<asrwt>0</asrwt>
<pdfrwt beam="1">  1        2 0.19107070E+00 0.63251485E+03</pdfrwt>
<pdfrwt beam="2">  1       -2 0.12389696E-01 0.63251485E+03</pdfrwt>
<totfact> 0.97630963E+02</totfact>
</mgrwt>
<rwgt>
<wgt id='morphing_basis_vector_1'> +2.0371907e-04 </wgt>
<wgt id='morphing_basis_vector_2'> +1.6043128e-04 </wgt>
<wgt id='morphing_basis_vector_3'> +1.5412587e-04 </wgt>
<wgt id='morphing_basis_vector_4'> +5.4542086e-05 </wgt>
<wgt id='morphing_basis_vector_5'> +1.0601581e-04 </wgt>
</rwgt>
</event>
<event>
 4      1 +5.9529000e-06 6.20238500e+02 7.81860800e-03 9.16489900e-02
        2 -1    0    0  501    0 +0.0000000000e+00 +0.0000000000e+00 +2.7306543599e+03 2.7306543599e+03 0.0000000000e+00 0.0000e+00 -1.0000e+00
       -2 -1    0    0    0  501 -0.0000000000e+00 -0.0000000000e+00 -3.5220112055e+01 3.5220112055e+01 0.0000000000e+00 0.0000e+00 1.0000e+00
      -13  1    1    2    0    0 +1.5141505781e+02 +2.6785121478e+02 +1.1748245748e+03 1.2144478476e+03 0.0000000000e+00 0.0000e+00 1.0000e+00
       13  1    1    2    0    0 -1.5141505781e+02 -2.6785121478e+02 +1.5206096730e+03 1.5514266244e+03 0.0000000000e+00 0.0000e+00 -1.0000e+00
<mgrwt>
<rscale>  0 0.62023851E+03</rscale>
<asrwt>0</asrwt>
<pdfrwt beam="1">  1        2 0.42010050E+00 0.62023851E+03</pdfrwt>
<pdfrwt beam="2">  1       -2 0.54184809E-02 0.62023851E+03</pdfrwt>
<totfact> 0.51560307E+02</totfact>
</mgrwt>
<rwgt>
<wgt id='morphing_basis_vector_1'> +1.7854212e-04 </wgt>
<wgt id='morphing_basis_vector_2'> +1.1158006e-04 </wgt>
<wgt id='morphing_basis_vector_3'> +1.4126674e-04 </wgt>
<wgt id='morphing_basis_vector_4'> +6.0162062e-05 </wgt>
<wgt id='morphing_basis_vector_5'> +9.6187039e-05 </wgt>
</rwgt>
</event>
<event>
 4      1 +5.9529000e-06 6.41180900e+02 7.81860800e-03 9.12976700e-02
        2 -1    0    0  501    0 +0.0000000000e+00 +0.0000000000e+00 +3.9467220345e+02 3.9467220345e+02 0.0000000000e+00 0.0000e+00 -1.0000e+00
       -2 -1    0    0    0  501 -0.0000000000e+00 -0.0000000000e+00 -2.6041416041e+02 2.6041416041e+02 0.0000000000e+00 0.0000e+00 1.0000e+00
      -13  1    1    2    0    0 +1.0578005868e+02 -8.5892512091e+01 -2.2935626477e+02 2.6677938570e+02 0.0000000000e+00 0.0000e+00 1.0000e+00
       13  1    1    2    0    0 -1.0578005868e+02 +8.5892512091e+01 +3.6361430781e+02 3.8830697816e+02 0.0000000000e+00 0.0000e+00 -1.0000e+00
<mgrwt>
<rscale>  0 0.64118088E+03</rscale>
<asrwt>0</asrwt>
<pdfrwt beam="1">  1        2 0.60718800E-01 0.64118088E+03</pdfrwt>
<pdfrwt beam="2">  1       -2 0.40063717E-01 0.64118088E+03</pdfrwt>
<totfact> 0.57075785E+02</totfact>
</mgrwt>
<rwgt>
<wgt id='morphing_basis_vector_1'> +1.9512509e-04 </wgt>
<wgt id='morphing_basis_vector_2'> +1.1239808e-04 </wgt>
<wgt id='morphing_basis_vector_3'> +1.5982032e-04 </wgt>
<wgt id='morphing_basis_vector_4'> +7.4215722e-05 </wgt>
<wgt id='morphing_basis_vector_5'> +1.1354464e-04 </wgt>
</rwgt>
</event>
<event>
 4      1 +5.9529000e-06 7.04268400e+02 7.81860800e-03 9.03188500e-02
        2 -1    0    0  501    0 +0.0000000000e+00 +0.0000000000e+00 +8.9015947704e+02 8.9015947704e+02 0.0000000000e+00 0.0000e+00 -1.0000e+00
       -2 -1    0    0    0  501 -0.0000000000e+00 -0.0000000000e+00 -1.3929919416e+02 1.3929919416e+02 0.0000000000e+00 0.0000e+00 1.0000e+00
      -13  1    1    2    0    0 -1.7224217951e+02 +1.6603530060e+02 -2.2637478234e+00 2.3924927168e+02 0.0000000000e+00 0.0000e+00 1.0000e+00
       13  1    1    2    0    0 +1.7224217951e+02 -1.6603530060e+02 +7.5312403071e+02 7.9020939951e+02 0.0000000000e+00 0.0000e+00 -1.0000e+00
<mgrwt>
<rscale>  0 0.70426841E+03</rscale>
<asrwt>0</asrwt>
<pdfrwt beam="1">  1        2 0.13694761E+00 0.70426841E+03</pdfrwt>
<pdfrwt beam="2">  1       -2 0.21430646E-01 0.70426841E+03</pdfrwt>
<totfact> 0.64983786E+02</totfact>
</mgrwt>
<rwgt>
<wgt id='morphing_basis_vector_1'> +2.6820801e-04 </wgt>
<wgt id='morphing_basis_vector_2'> +1.5808104e-04 </wgt>
<wgt id='morphing_basis_vector_3'> +2.2902392e-04 </wgt>
<wgt id='morphing_basis_vector_4'> +1.1521918e-04 </wgt>
<wgt id='morphing_basis_vector_5'> +1.7901658e-04 </wgt>
</rwgt>
</event>
<event>
 4      1 +5.9529000e-06 6.46628100e+02 7.81860800e-03 9.12086000e-02
        2 -1    0    0  501    0 +0.0000000000e+00 +0.0000000000e+00 +7.7942472345e+02 7.7942472345e+02 0.0000000000e+00 0.0000e+00 -1.0000e+00
       -2 -1    0    0    0  501 -0.0000000000e+00 -0.0000000000e+00 -1.3411425196e+02 1.3411425196e+02 0.0000000000e+00 0.0000e+00 1.0000e+00
      -13  1    1    2    0    0 -1.8507451608e+02 +4.3147167270e+01 -4.6880799602e+01 1.9573467734e+02 0.0000000000e+00 0.0000e+00 1.0000e+00
       13  1    1    2    0    0 +1.8507451608e+02 -4.3147167270e+01 +6.9219127109e+02 7.1780429806e+02 0.0000000000e+00 0.0000e+00 -1.0000e+00
<mgrwt>
<rscale>  0 0.64662807E+03</rscale>
<asrwt>0</asrwt>
<pdfrwt beam="1">  1        2 0.11991149E+00 0.64662807E+03</pdfrwt>
<pdfrwt beam="2">  1       -2 0.20632962E-01 0.64662807E+03</pdfrwt>
<totfact> 0.82407777E+02</totfact>
</mgrwt>
<rwgt>
<wgt id='morphing_basis_vector_1'> +2.0077568e-04 </wgt>
<wgt id='morphing_basis_vector_2'> +1.1602422e-04 </wgt>
<wgt id='morphing_basis_vector_3'> +1.6506050e-04 </wgt>
<wgt id='morphing_basis_vector_4'> +7.7210549e-05 </wgt>
<wgt id='morphing_basis_vector_5'> +1.1839276e-04 </wgt>
</rwgt>
</event>
<event>
 4      1 +5.9529000e-06 6.82368900e+02 7.81860800e-03 9.06460700e-02
        2 -1    0    0  501    0 +0.0000000000e+00 +0.0000000000e+00 +2.9105538580e+03 2.9105538580e+03 0.0000000000e+00 0.0000e+00 1.0000e+00
       -2 -1    0    0    0  501 -0.0000000000e+00 -0.0000000000e+00 -3.9994729082e+01 3.9994729082e+01 0.0000000000e+00 0.0000e+00 -1.0000e+00
      -13  1    1    2    0    0 +1.2813709338e+02 -3.0874110460e+02 +1.7306623606e+03 1.7626492534e+03 0.0000000000e+00 0.0000e+00 -1.0000e+00
       13  1    1    2    0    0 -1.2813709338e+02 +3.0874110460e+02 +1.1398967683e+03 1.1878993336e+03 0.0000000000e+00 0.0000e+00 1.0000e+00
<mgrwt>
<rscale>  0 0.68236885E+03</rscale>
<asrwt>0</asrwt>
<pdfrwt beam="1">  1        2 0.44777735E+00 0.68236885E+03</pdfrwt>
<pdfrwt beam="2">  1       -2 0.61530375E-02 0.68236885E+03</pdfrwt>
<totfact> 0.32713059E+02</totfact>
</mgrwt>
<rwgt>
<wgt id='morphing_basis_vector_1'> +2.5732894e-04 </wgt>
<wgt id='morphing_basis_vector_2'> +1.9203859e-04 </wgt>
<wgt id='morphing_basis_vector_3'> +2.0771711e-04 </wgt>
<wgt id='morphing_basis_vector_4'> +8.2772111e-05 </wgt>
<wgt id='morphing_basis_vector_5'> +1.5352498e-04 </wgt>
</rwgt>
</event>
<event>
 4      1 +5.9529000e-06 6.22223600e+02 7.81860800e-03 9.16150700e-02
        2 -1    0    0  501    0 +0.0000000000e+00 +0.0000000000e+00 +9.2615579845e+02 9.2615579845e+02 0.0000000000e+00 0.0000e+00 -1.0000e+00
       -2 -1    0    0    0  501 -0.0000000000e+00 -0.0000000000e+00 -1.0450784797e+02 1.0450784797e+02 0.0000000000e+00 0.0000e+00 1.0000e+00
      -13  1    1    2    0    0 +2.4216158547e+02 -1.6863152787e+02 +2.4758696042e+02 3.8519881702e+02 0.0000000000e+00 0.0000e+00 1.0000e+00
       13  1    1    2    0    0 -2.4216158547e+02 +1.6863152787e+02 +5.7406099007e+02 6.4546482940e+02 0.0000000000e+00 0.0000e+00 -1.0000e+00
<mgrwt>
<rscale>  0 0.62222359E+03</rscale>
<asrwt>0</asrwt>
<pdfrwt beam="1">  1        2 0.14248550E+00 0.62222359E+03</pdfrwt>
<pdfrwt beam="2">  1       -2 0.16078131E-01 0.62222359E+03</pdfrwt>
<totfact> 0.99231561E+02</totfact>
</mgrwt>
<rwgt>
<wgt id='morphing_basis_vector_1'> +1.7838359e-04 </wgt>
<wgt id='morphing_basis_vector_2'> +1.0648334e-04 </wgt>
<wgt id='morphing_basis_vector_3'> +1.4280333e-04 </wgt>
<wgt id='morphing_basis_vector_4'> +6.2809467e-05 </wgt>
<wgt id='morphing_basis_vector_5'> +9.7748844e-05 </wgt>
</rwgt>
</event>
<event>
 4      1 +5.9529000e-06 7.24904400e+02 7.81860800e-03 9.00216400e-02
        2 -1    0    0  501    0 +0.0000000000e+00 +0.0000000000e+00 +3.6036527358e+02 3.6036527358e+02 0.0000000000e+00 0.0000e+00 -1.0000e+00
       -2 -1    0    0    0  501 -0.0000000000e+00 -0.0000000000e+00 -3.6455119382e+02 3.6455119382e+02 0.0000000000e+00 0.0000e+00 1.0000e+00
      -13  1    1    2    0    0 +1.5534976866e+02 +1.2052440953e+02 -3.0658433633e+02 3.6421647299e+02 0.0000000000e+00 0.0000e+00 1.0000e+00
       13  1    1    2    0    0 -1.5534976866e+02 -1.2052440953e+02 +3.0239841609e+02 3.6069999441e+02 0.0000000000e+00 0.0000e+00 -1.0000e+00
<mgrwt>
<rscale>  0 0.72490438E+03</rscale>
<asrwt>0</asrwt>
<pdfrwt beam="1">  1        2 0.55440812E-01 0.72490438E+03</pdfrwt>
<pdfrwt beam="2">  1       -2 0.56084799E-01 0.72490438E+03</pdfrwt>
<totfact> 0.32943693E+02</totfact>
</mgrwt>
<rwgt>
<wgt id='morphing_basis_vector_1'> +2.9606814e-04 </wgt>
<wgt id='morphing_basis_vector_2'> +1.7507451e-04 </wgt>
<wgt id='morphing_basis_vector_3'> +2.5598184e-04 </wgt>
<wgt id='morphing_basis_vector_4'> +1.3188986e-04 </wgt>
<wgt id='morphing_basis_vector_5'> +2.0524550e-04 </wgt>
</rwgt>
</event>
<event>
 4      1 +5.9529000e-06 7.01495900e+02 7.81860800e-03 9.03595900e-02
        2 -1    0    0  501    0 +0.0000000000e+00 +0.0000000000e+00 +2.1691856989e+03 2.1691856989e+03 0.0000000000e+00 0.0000e+00 -1.0000e+00
       -2 -1    0    0    0  501 -0.0000000000e+00 -0.0000000000e+00 -5.6714423095e+01 5.6714423095e+01 0.0000000000e+00 0.0000e+00 1.0000e+00
      -13  1    1    2    0    0 -2.1691553663e+02 +2.2819829026e+02 +5.6571755483e+02 6.4742811304e+02 0.0000000000e+00 0.0000e+00 1.0000e+00
       13  1    1    2    0    0 +2.1691553663e+02 -2.2819829026e+02 +1.5467537210e+03 1.5784720089e+03 0.0000000000e+00 0.0000e+00 -1.0000e+00
<mgrwt>
<rscale>  0 0.70149587E+03</rscale>
<asrwt>0</asrwt>
<pdfrwt beam="1">  1        2 0.33372081E+00 0.70149587E+03</pdfrwt>
<pdfrwt beam="2">  1       -2 0.87252975E-02 0.70149587E+03</pdfrwt>
<totfact> 0.51993866E+02</totfact>
</mgrwt>
<rwgt>
<wgt id='morphing_basis_vector_1'> +2.6587335e-04 </wgt>
<wgt id='morphing_basis_vector_2'> +1.5973742e-04 </wgt>
<wgt id='morphing_basis_vector_3'> +2.2601395e-04 </wgt>
<wgt id='morphing_basis_vector_4'> +1.1179009e-04 </wgt>
<wgt id='morphing_basis_vector_5'> +1.7565008e-04 </wgt>
</rwgt>
</event>
<event>
 4      1 +5.9529000e-06 6.61845600e+02 7.81860800e-03 9.09645500e-02
        2 -1    0    0  501    0 +0.0000000000e+00 +0.0000000000e+00 +3.4499363736e+02 3.4499363736e+02 0.0000000000e+00 0.0000e+00 -1.0000e+00
       -2 -1    0    0    0  501 -0.0000000000e+00 -0.0000000000e+00 -3.1742583587e+02 3.1742583587e+02 0.0000000000e+00 0.0000e+00 1.0000e+00
      -13  1    1    2    0    0 +6.5018805251e+01 +1.5631590967e+02 -2.7080009950e+02 3.1936625141e+02 0.0000000000e+00 0.0000e+00 1.0000e+00
       13  1    1    2    0    0 -6.5018805251e+01 -1.5631590967e+02 +2.9836790099e+02 3.4305322181e+02 0.0000000000e+00 0.0000e+00 -1.0000e+00
<mgrwt>
<rscale>  0 0.66184558E+03</rscale>
<asrwt>0</asrwt>
<pdfrwt beam="1">  1        2 0.53075945E-01 0.66184558E+03</pdfrwt>
<pdfrwt beam="2">  1       -2 0.48834743E-01 0.66184558E+03</pdfrwt>
<totfact> 0.45581830E+02</totfact>
</mgrwt>
<rwgt>
<wgt id='morphing_basis_vector_1'> +2.1701760e-04 </wgt>
<wgt id='morphing_basis_vector_2'> +1.2590911e-04 </wgt>
<wgt id='morphing_basis_vector_3'> +1.8037007e-04 </wgt>
<wgt id='morphing_basis_vector_4'> +8.6262808e-05 </wgt>
<wgt id='morphing_basis_vector_5'> +1.3270852e-04 </wgt>
</rwgt>
</event>
<event>
 4      1 +5.9529000e-06 6.68735000e+02 7.81860800e-03 9.08563100e-02
        2 -1    0    0  501    0 +0.0000000000e+00 +0.0000000000e+00 +8.8875051645e+02 8.8875051645e+02 0.0000000000e+00 0.0000e+00 1.0000e+00
       -2 -1    0    0    0  501 -0.0000000000e+00 -0.0000000000e+00 -1.2579640224e+02 1.2579640224e+02 0.0000000000e+00 0.0000e+00 -1.0000e+00
      -13  1    1    2    0    0 -3.0092961455e+01 -3.1616883986e+02 +2.2284401711e+02 3.8797909427e+02 0.0000000000e+00 0.0000e+00 -1.0000e+00
       13  1    1    2    0    0 +3.0092961455e+01 +3.1616883986e+02 +5.4011009710e+02 6.2656782443e+02 0.0000000000e+00 0.0000e+00 1.0000e+00
<mgrwt>
<rscale>  0 0.66873498E+03</rscale>
<asrwt>0</asrwt>
<pdfrwt beam="1">  1        2 0.13673084E+00 0.66873498E+03</pdfrwt>
<pdfrwt beam="2">  1       -2 0.19353293E-01 0.66873498E+03</pdfrwt>
<totfact> 0.77286613E+02</totfact>
</mgrwt>
<rwgt>
<wgt id='morphing_basis_vector_1'> +2.2696336e-04 </wgt>
<wgt id='morphing_basis_vector_2'> +1.3757026e-04 </wgt>
<wgt id='morphing_basis_vector_3'> +1.8822956e-04 </wgt>
<wgt id='morphing_basis_vector_4'> +8.8411735e-05 </wgt>
<wgt id='morphing_basis_vector_5'> +1.3953379e-04 </wgt>
</rwgt>
</event>
<event>
 4      1 +5.9529000e-06 7.09943100e+02 7.81860800e-03 9.02360800e-02
        2 -1    0    0  501    0 +0.0000000000e+00 +0.0000000000e+00 +1.4446242507e+03 1.4446242507e+03 0.0000000000e+00 0.0000e+00 1.0000e+00
       -2 -1    0    0    0  501 -0.0000000000e+00 -0.0000000000e+00 -8.7223224266e+01 8.7223224266e+01 0.0000000000e+00 0.0000e+00 -1.0000e+00
      -13  1    1    2    0    0 -3.0974181706e+02 -7.4139155553e+01 +3.4049671547e+02 4.6623451274e+02 0.0000000000e+00 0.0000e+00 -1.0000e+00
       13  1    1    2    0    0 +3.0974181706e+02 +7.4139155553e+01 +1.0169043110e+03 1.0656129623e+03 0.0000000000e+00 0.0000e+00 1.0000e+00
<mgrwt>
<rscale>  0 0.70994305E+03</rscale>
<asrwt>0</asrwt>
<pdfrwt beam="1">  1        2 0.22224987E+00 0.70994305E+03</pdfrwt>
<pdfrwt beam="2">  1       -2 0.13418959E-01 0.70994305E+03</pdfrwt>
<totfact> 0.65924384E+02</totfact>
</mgrwt>
<rwgt>
<wgt id='morphing_basis_vector_1'> +2.7701608e-04 </wgt>
<wgt id='morphing_basis_vector_2'> +1.6681576e-04 </wgt>
<wgt id='morphing_basis_vector_3'> +2.3672230e-04 </wgt>
<wgt id='morphing_basis_vector_4'> +1.1817507e-04 </wgt>
<wgt id='morphing_basis_vector_5'> +1.8593492e-04 </wgt>
</rwgt>
</event>
<event>
 4      1 +5.9529000e-06 6.60338200e+02 7.81860800e-03 9.09884200e-02
        2 -1    0    0  501    0 +0.0000000000e+00 +0.0000000000e+00 +7.4723472763e+02 7.4723472763e+02 0.0000000000e+00 0.0000e+00 1.0000e+00
       -2 -1    0    0    0  501 -0.0000000000e+00 -0.0000000000e+00 -1.4588674712e+02 1.4588674712e+02 0.0000000000e+00 0.0000e+00 -1.0000e+00
      -13  1    1    2    0    0 +1.9907783569e+02 +5.7312400970e+00 +6.5684399520e+02 6.8637370711e+02 0.0000000000e+00 0.0000e+00 1.0000e+00
       13  1    1    2    0    0 -1.9907783569e+02 -5.7312400970e+00 -5.5496014687e+01 2.0674776764e+02 0.0000000000e+00 0.0000e+00 -1.0000e+00
<mgrwt>
<rscale>  0 0.66033823E+03</rscale>
<asrwt>0</asrwt>
<pdfrwt beam="1">  1        2 0.11495919E+00 0.66033823E+03</pdfrwt>
<pdfrwt beam="2">  1       -2 0.22444115E-01 0.66033823E+03</pdfrwt>
<totfact> 0.75424572E+02</totfact>
</mgrwt>
<rwgt>
<wgt id='morphing_basis_vector_1'> +2.8493189e-04 </wgt>
<wgt id='morphing_basis_vector_2'> +3.3988963e-04 </wgt>
<wgt id='morphing_basis_vector_3'> +1.9473823e-04 </wgt>
<wgt id='morphing_basis_vector_4'> +1.9281682e-05 </wgt>
<wgt id='morphing_basis_vector_5'> +1.3018750e-04 </wgt>
</rwgt>
</event>
<event>
 4      1 +5.9529000e-06 6.20536400e+02 7.81860800e-03 9.16438900e-02
        2 -1    0    0  501    0 +0.0000000000e+00 +0.0000000000e+00 +2.4849781437e+02 2.4849781437e+02 0.0000000000e+00 0.0000e+00 1.0000e+00
       -2 -1    0    0    0  501 -0.0000000000e+00 -0.0000000000e+00 -3.8739314501e+02 3.8739314501e+02 0.0000000000e+00 0.0000e+00 -1.0000e+00
      -13  1    1    2    0    0 +1.9794798436e+02 +5.6303379584e+01 -3.0738448233e+02 3.6991714619e+02 0.0000000000e+00 0.0000e+00 -1.0000e+00
       13  1    1    2    0    0 -1.9794798436e+02 -5.6303379584e+01 +1.6848915169e+02 2.6597381319e+02 0.0000000000e+00 0.0000e+00 1.0000e+00
<mgrwt>
<rscale>  0 0.62053638E+03</rscale>
<asrwt>0</asrwt>
<pdfrwt beam="1">  1        2 0.38230433E-01 0.62053638E+03</pdfrwt>
<pdfrwt beam="2">  1       -2 0.59598945E-01 0.62053638E+03</pdfrwt>
<totfact> 0.44424793E+02</totfact>
</mgrwt>
<rwgt>
<wgt id='morphing_basis_vector_1'> +1.7519865e-04 </wgt>
<wgt id='morphing_basis_vector_2'> +1.0053496e-04 </wgt>
<wgt id='morphing_basis_vector_3'> +1.4118371e-04 </wgt>
<wgt id='morphing_basis_vector_4'> +6.3327676e-05 </wgt>
<wgt id='morphing_basis_vector_5'> +9.6426925e-05 </wgt>
</rwgt>
</event>
<event>
 4      1 +5.9529000e-06 7.18200600e+02 7.81860800e-03 9.01170500e-02
        2 -1    0    0  501    0 +0.0000000000e+00 +0.0000000000e+00 +1.2253495839e+03 1.2253495839e+03 0.0000000000e+00 0.0000e+00 1.0000e+00
       -2 -1    0    0    0  501 -0.0000000000e+00 -0.0000000000e+00 -1.0523775520e+02 1.0523775520e+02 0.0000000000e+00 0.0000e+00 -1.0000e+00
      -13  1    1    2    0    0 +1.0701432941e+02 -2.9398382211e+02 +8.8664342351e+02 9.4022077982e+02 0.0000000000e+00 0.0000e+00 1.0000e+00
       13  1    1    2    0    0 -1.0701432941e+02 +2.9398382211e+02 +2.3346840515e+02 3.9036655923e+02 0.0000000000e+00 0.0000e+00 -1.0000e+00
<mgrwt>
<rscale>  0 0.71820064E+03</rscale>
<asrwt>0</asrwt>
<pdfrwt beam="1">  1        2 0.18851531E+00 0.71820064E+03</pdfrwt>
<pdfrwt beam="2">  1       -2 0.16190425E-01 0.71820064E+03</pdfrwt>
<totfact> 0.64643839E+02</totfact>
</mgrwt>
<rwgt>
<wgt id='morphing_basis_vector_1'> +3.3622823e-04 </wgt>
<wgt id='morphing_basis_vector_2'> +3.2164698e-04 </wgt>
<wgt id='morphing_basis_vector_3'> +2.6670713e-04 </wgt>
<wgt id='morphing_basis_vector_4'> +7.2178268e-05 </wgt>
<wgt id='morphing_basis_vector_5'> +1.9483534e-04 </wgt>
</rwgt>
</event>
<event>
 4      1 +5.9529000e-06 7.33595100e+02 7.81860800e-03 8.98995600e-02
        2 -1    0    0  501    0 +0.0000000000e+00 +0.0000000000e+00 +2.3395220112e+03 2.3395220112e+03 0.0000000000e+00 0.0000e+00 -1.0000e+00
       -2 -1    0    0    0  501 -0.0000000000e+00 -0.0000000000e+00 -5.7507654863e+01 5.7507654863e+01 0.0000000000e+00 0.0000e+00 1.0000e+00
      -13  1    1    2    0    0 +2.4155931988e+02 +2.7419591487e+02 +1.2446506195e+03 1.2971852101e+03 0.0000000000e+00 0.0000e+00 1.0000e+00
       13  1    1    2    0    0 -2.4155931988e+02 -2.7419591487e+02 +1.0373637368e+03 1.0998444559e+03 0.0000000000e+00 0.0000e+00 -1.0000e+00
<mgrwt>
<rscale>  0 0.73359505E+03</rscale>
<asrwt>0</asrwt>
<pdfrwt beam="1">  1        2 0.35992639E+00 0.73359505E+03</pdfrwt>
<pdfrwt beam="2">  1       -2 0.88473333E-02 0.73359505E+03</pdfrwt>
<totfact> 0.40661074E+02</totfact>
</mgrwt>
<rwgt>
<wgt id='morphing_basis_vector_1'> +3.2309264e-04 </wgt>
<wgt id='morphing_basis_vector_2'> +2.2764382e-04 </wgt>
<wgt id='morphing_basis_vector_3'> +2.7446843e-04 </wgt>
<wgt id='morphing_basis_vector_4'> +1.2289537e-04 </wgt>
<wgt id='morphing_basis_vector_5'> +2.1653064e-04 </wgt>
</rwgt>
</event>
<event>
 4      1 +5.9529000e-06 7.18111200e+02 7.81860800e-03 9.01183300e-02
        2 -1    0    0  501    0 +0.0000000000e+00 +0.0000000000e+00 +1.4246592655e+03 1.4246592655e+03 0.0000000000e+00 0.0000e+00 -1.0000e+00
       -2 -1    0    0    0  501 -0.0000000000e+00 -0.0000000000e+00 -9.0492473510e+01 9.0492473510e+01 0.0000000000e+00 0.0000e+00 1.0000e+00
      -13  1    1    2    0    0 +2.1771980348e+02 +1.4297566153e+02 +1.4564476067e+02 2.9842310387e+02 0.0000000000e+00 0.0000e+00 1.0000e+00
       13  1    1    2    0    0 -2.1771980348e+02 -1.4297566153e+02 +1.1885220313e+03 1.2167286351e+03 0.0000000000e+00 0.0000e+00 -1.0000e+00
<mgrwt>
<rscale>  0 0.71811125E+03</rscale>
<asrwt>0</asrwt>
<pdfrwt beam="1">  1        2 0.21917833E+00 0.71811125E+03</pdfrwt>
<pdfrwt beam="2">  1       -2 0.13921920E-01 0.71811125E+03</pdfrwt>
<totfact> 0.63717393E+02</totfact>
</mgrwt>
<rwgt>
<wgt id='morphing_basis_vector_1'> +2.8689024e-04 </wgt>
<wgt id='morphing_basis_vector_2'> +1.7004957e-04 </wgt>
<wgt id='morphing_basis_vector_3'> +2.4694679e-04 </wgt>
<wgt id='morphing_basis_vector_4'> +1.2596350e-04 </wgt>
<wgt id='morphing_basis_vector_5'> +1.9632091e-04 </wgt>
</rwgt>
</event>
<event>
 4      1 +5.9529000e-06 6.67217000e+02 7.81860800e-03 9.08800400e-02
        2 -1    0    0  501    0 +0.0000000000e+00 +0.0000000000e+00 +6.3491451533e+02 6.3491451533e+02 0.0000000000e+00 0.0000e+00 -1.0000e+00
       -2 -1    0    0    0  501 -0.0000000000e+00 -0.0000000000e+00 -1.7529072454e+02 1.7529072454e+02 0.0000000000e+00 0.0000e+00 1.0000e+00
      -13  1    1    2    0    0 -9.2651037705e+01 -1.2199811410e+02 +5.8967859470e+02 6.0925249255e+02 0.0000000000e+00 0.0000e+00 -1.0000e+00
       13  1    1    2    0    0 +9.2651037705e+01 +1.2199811410e+02 -1.3005480391e+02 2.0095274731e+02 0.0000000000e+00 0.0000e+00 1.0000e+00
<mgrwt>
<rscale>  0 0.66721698E+03</rscale>
<asrwt>0</asrwt>
<pdfrwt beam="1">  1        2 0.97679155E-01 0.66721698E+03</pdfrwt>
<pdfrwt beam="2">  1       -2 0.26967804E-01 0.66721698E+03</pdfrwt>
<totfact> 0.67181235E+02</totfact>
</mgrwt>
<rwgt>
<wgt id='morphing_basis_vector_1'> +3.0117762e-04 </wgt>
<wgt id='morphing_basis_vector_2'> +3.7106308e-04 </wgt>
<wgt id='morphing_basis_vector_3'> +2.0563175e-04 </wgt>
<wgt id='morphing_basis_vector_4'> +1.3956371e-05 </wgt>
<wgt id='morphing_basis_vector_5'> +1.3668885e-04 </wgt>
</rwgt>
</event>
<event>
 4      1 +5.9529000e-06 6.20134800e+02 7.81860800e-03 9.16507700e-02
        2 -1    0    0  501    0 +0.0000000000e+00 +0.0000000000e+00 +6.6581515614e+02 6.6581515614e+02 0.0000000000e+00 0.0000e+00 1.0000e+00
       -2 -1    0    0    0  501 -0.0000000000e+00 -0.0000000000e+00 -1.4439713184e+02 1.4439713184e+02 0.0000000000e+00 0.0000e+00 -1.0000e+00
      -13  1    1    2    0    0 -2.2391394239e+02 -5.5085770024e+01 +5.3153784354e+02 5.7940001275e+02 0.0000000000e+00 0.0000e+00 -1.0000e+00
       13  1    1    2    0    0 +2.2391394239e+02 +5.5085770024e+01 -1.0119819252e+01 2.3081227523e+02 0.0000000000e+00 0.0000e+00 1.0000e+00
<mgrwt>
<rscale>  0 0.62013482E+03</rscale>
<asrwt>0</asrwt>
<pdfrwt beam="1">  1        2 0.10243310E+00 0.62013482E+03</pdfrwt>
<pdfrwt beam="2">  1       -2 0.22214944E-01 0.62013482E+03</pdfrwt>
<totfact> 0.88425806E+02</totfact>
</mgrwt>
<rwgt>
<wgt id='morphing_basis_vector_1'> +2.2052686e-04 </wgt>
<wgt id='morphing_basis_vector_2'> +2.4186957e-04 </wgt>
<wgt id='morphing_basis_vector_3'> +1.4510245e-04 </wgt>
<wgt id='morphing_basis_vector_4'> +2.5032296e-05 </wgt>
<wgt id='morphing_basis_vector_5'> +9.6025475e-05 </wgt>
</rwgt>
</event>
<event>
 4      1 +5.9529000e-06 6.21190800e+02 7.81860800e-03 9.16327000e-02
        2 -1    0    0  501    0 +0.0000000000e+00 +0.0000000000e+00 +9.7320175276e+02 9.7320175276e+02 0.0000000000e+00 0.0000e+00 1.0000e+00
       -2 -1    0    0    0  501 -0.0000000000e+00 -0.0000000000e+00 -9.9125888924e+01 9.9125888924e+01 0.0000000000e+00 0.0000e+00 -1.0000e+00
      -13  1    1    2    0    0 -2.9945096514e+02 -7.1741688285e+01 +5.0719527932e+02 5.9335048810e+02 0.0000000000e+00 0.0000e+00 1.0000e+00
       13  1    1    2    0    0 +2.9945096514e+02 +7.1741688285e+01 +3.6688058452e+02 4.7897715359e+02 0.0000000000e+00 0.0000e+00 -1.0000e+00
<mgrwt>
<rscale>  0 0.62119076E+03</rscale>
<asrwt>0</asrwt>
<pdfrwt beam="1">  1        2 0.14972334E+00 0.62119076E+03</pdfrwt>
<pdfrwt beam="2">  1       -2 0.15250137E-01 0.62119076E+03</pdfrwt>
<totfact> 0.10097616E+03</totfact>
</mgrwt>
<rwgt>
<wgt id='morphing_basis_vector_1'> +1.8521886e-04 </wgt>
<wgt id='morphing_basis_vector_2'> +1.3005572e-04 </wgt>
<wgt id='morphing_basis_vector_3'> +1.4266100e-04 </wgt>
<wgt id='morphing_basis_vector_4'> +5.5774944e-05 </wgt>
<wgt id='morphing_basis_vector_5'> +9.6918347e-05 </wgt>
</rwgt>
</event>
<event>
 4      1 +5.9529000e-06 6.71307700e+02 7.81860800e-03 9.08162400e-02
        2 -1    0    0  501    0 +0.0000000000e+00 +0.0000000000e+00 +1.1737596823e+03 1.1737596823e+03 0.0000000000e+00 0.0000e+00 -1.0000e+00
       -2 -1    0    0    0  501 -0.0000000000e+00 -0.0000000000e+00 -9.5985161551e+01 9.5985161551e+01 0.0000000000e+00 0.0000e+00 1.0000e+00
      -13  1    1    2    0    0 +1.9013631767e+02 +5.9082321507e+01 +2.7772262018e+01 2.0103193415e+02 0.0000000000e+00 0.0000e+00 1.0000e+00
       13  1    1    2    0    0 -1.9013631767e+02 -5.9082321507e+01 +1.0500022587e+03 1.0687129097e+03 0.0000000000e+00 0.0000e+00 -1.0000e+00
<mgrwt>
<rscale>  0 0.67130772E+03</rscale>
<asrwt>0</asrwt>
<pdfrwt beam="1">  1        2 0.18057840E+00 0.67130772E+03</pdfrwt>
<pdfrwt beam="2">  1       -2 0.14766949E-01 0.67130772E+03</pdfrwt>
<totfact> 0.80527093E+02</totfact>
</mgrwt>
<rwgt>
<wgt id='morphing_basis_vector_1'> +2.2771334e-04 </wgt>
<wgt id='morphing_basis_vector_2'> +1.3263522e-04 </wgt>
<wgt id='morphing_basis_vector_3'> +1.9045160e-04 </wgt>
<wgt id='morphing_basis_vector_4'> +9.2188292e-05 </wgt>
<wgt id='morphing_basis_vector_5'> +1.4219918e-04 </wgt>
</rwgt>
</event>
<event>
 4      1 +5.9529000e-06 6.39787100e+02 7.81860800e-03 9.13206100e-02
        2 -1    0    0  501    0 +0.0000000000e+00 +0.0000000000e+00 +3.1407104764e+02 3.1407104764e+02 0.0000000000e+00 0.0000e+00 -1.0000e+00
       -2 -1    0    0    0  501 -0.0000000000e+00 -0.0000000000e+00 -3.2582404330e+02 3.2582404330e+02 0.0000000000e+00 0.0000e+00 1.0000e+00
      -13  1    1    2    0    0 -7.3970976597e+01 +2.0115417465e+02 -2.4339749317e+02 3.2431010937e+02 0.0000000000e+00 0.0000e+00 1.0000e+00
       13  1    1    2    0    0 +7.3970976597e+01 -2.0115417465e+02 +2.3164449752e+02 3.1558498156e+02 0.0000000000e+00 0.0000e+00 -1.0000e+00
<mgrwt>
<rscale>  0 0.63978715E+03</rscale>
<asrwt>0</asrwt>
<pdfrwt beam="1">  1        2 0.48318623E-01 0.63978715E+03</pdfrwt>
<pdfrwt beam="2">  1       -2 0.50126776E-01 0.63978715E+03</pdfrwt>
<totfact> 0.48163268E+02</totfact>
</mgrwt>
<rwgt>
<wgt id='morphing_basis_vector_1'> +1.9385850e-04 </wgt>
<wgt id='morphing_basis_vector_2'> +1.1197553e-04 </wgt>
<wgt id='morphing_basis_vector_3'> +1.5852668e-04 </wgt>
<wgt id='morphing_basis_vector_4'> +7.3321595e-05 </wgt>
<wgt id='morphing_basis_vector_5'> +1.1232558e-04 </wgt>
</rwgt>
</event>
<event>
 4      1 +5.9529000e-06 6.75804000e+02 7.81860800e-03 9.07466600e-02
        2 -1    0    0  501    0 +0.0000000000e+00 +0.0000000000e+00 +1.1150148366e+03 1.1150148366e+03 0.0000000000e+00 0.0000e+00 -1.0000e+00
       -2 -1    0    0    0  501 -0.0000000000e+00 -0.0000000000e+00 -1.0240022556e+02 1.0240022556e+02 0.0000000000e+00 0.0000e+00 1.0000e+00
      -13  1    1    2    0    0 -2.1542585155e+02 +1.0875312301e+02 +8.0230602781e+01 2.5430786245e+02 0.0000000000e+00 0.0000e+00 1.0000e+00
       13  1    1    2    0    0 +2.1542585155e+02 -1.0875312301e+02 +9.3238400826e+02 9.6310719971e+02 0.0000000000e+00 0.0000e+00 -1.0000e+00
<mgrwt>
<rscale>  0 0.67580403E+03</rscale>
<asrwt>0</asrwt>
<pdfrwt beam="1">  1        2 0.17154074E+00 0.67580403E+03</pdfrwt>
<pdfrwt beam="2">  1       -2 0.15753882E-01 0.67580403E+03</pdfrwt>
<totfact> 0.78486227E+02</totfact>
</mgrwt>
<rwgt>
<wgt id='morphing_basis_vector_1'> +2.3308879e-04 </wgt>
<wgt id='morphing_basis_vector_2'> +1.3638709e-04 </wgt>
<wgt id='morphing_basis_vector_3'> +1.9543520e-04 </wgt>
<wgt id='morphing_basis_vector_4'> +9.4957860e-05 </wgt>
<wgt id='morphing_basis_vector_5'> +1.4686965e-04 </wgt>
</rwgt>
</event>
<event>
 4      1 +5.9529000e-06 6.56427500e+02 7.81860800e-03 9.10506500e-02
        2 -1    0    0  501    0 +0.0000000000e+00 +0.0000000000e+00 +7.5295555502e+02 7.5295555502e+02 0.0000000000e+00 0.0000e+00 -1.0000e+00
       -2 -1    0    0    0  501 -0.0000000000e+00 -0.0000000000e+00 -1.4306856775e+02 1.4306856775e+02 0.0000000000e+00 0.0000e+00 1.0000e+00
      -13  1    1    2    0    0 -3.1288836169e+02 -7.1071463564e+01 +3.9925698249e+02 5.1220739733e+02 0.0000000000e+00 0.0000e+00 -1.0000e+00
       13  1    1    2    0    0 +3.1288836169e+02 +7.1071463564e+01 +2.1063000478e+02 3.8381672544e+02 0.0000000000e+00 0.0000e+00 1.0000e+00
<mgrwt>
<rscale>  0 0.65642752E+03</rscale>
<asrwt>0</asrwt>
<pdfrwt beam="1">  1        2 0.11583931E+00 0.65642752E+03</pdfrwt>
<pdfrwt beam="2">  1       -2 0.22010549E-01 0.65642752E+03</pdfrwt>
<totfact> 0.77211874E+02</totfact>
</mgrwt>
<rwgt>
<wgt id='morphing_basis_vector_1'> +2.2620864e-04 </wgt>
<wgt id='morphing_basis_vector_2'> +1.6895828e-04 </wgt>
<wgt id='morphing_basis_vector_3'> +1.7806460e-04 </wgt>
<wgt id='morphing_basis_vector_4'> +6.8790352e-05 </wgt>
<wgt id='morphing_basis_vector_5'> +1.2727013e-04 </wgt>
</rwgt>
</event>
<event>
 4      1 +5.9529000e-06 6.25996100e+02 7.81860800e-03 9.15509700e-02
        2 -1    0    0  501    0 +0.0000000000e+00 +0.0000000000e+00 +1.0770697356e+03 1.0770697356e+03 0.0000000000e+00 0.0000e+00 -1.0000e+00
       -2 -1    0    0    0  501 -0.0000000000e+00 -0.0000000000e+00 -9.0957703441e+01 9.0957703441e+01 0.0000000000e+00 0.0000e+00 1.0000e+00
      -13  1    1    2    0    0 +2.6311481361e+02 -5.6665347729e+01 +1.9494029380e+02 3.3232827885e+02 0.0000000000e+00 0.0000e+00 1.0000e+00
       13  1    1    2    0    0 -2.6311481361e+02 +5.6665347729e+01 +7.9117173832e+02 8.3569916016e+02 0.0000000000e+00 0.0000e+00 -1.0000e+00
<mgrwt>
<rscale>  0 0.62599613E+03</rscale>
<asrwt>0</asrwt>
<pdfrwt beam="1">  1        2 0.16570303E+00 0.62599613E+03</pdfrwt>
<pdfrwt beam="2">  1       -2 0.13993494E-01 0.62599613E+03</pdfrwt>
<totfact> 0.10024913E+03</totfact>
</mgrwt>
<rwgt>
<wgt id='morphing_basis_vector_1'> +1.8090269e-04 </wgt>
<wgt id='morphing_basis_vector_2'> +1.0542861e-04 </wgt>
<wgt id='morphing_basis_vector_3'> +1.4600733e-04 </wgt>
<wgt id='morphing_basis_vector_4'> +6.5573578e-05 </wgt>
<wgt id='morphing_basis_vector_5'> +1.0076210e-04 </wgt>
</rwgt>
</event>
<event>
 4      1 +5.9529000e-06 7.37575400e+02 7.81860800e-03 8.98442500e-02
        2 -1    0    0  501    0 +0.0000000000e+00 +0.0000000000e+00 +1.3247147015e+03 1.3247147015e+03 0.0000000000e+00 0.0000e+00 1.0000e+00
       -2 -1    0    0    0  501 -0.0000000000e+00 -0.0000000000e+00 -1.0266690184e+02 1.0266690184e+02 0.0000000000e+00 0.0000e+00 -1.0000e+00
      -13  1    1    2    0    0 +2.0666119449e+02 -2.3930619642e+02 +2.4369587200e+02 3.9920418708e+02 0.0000000000e+00 0.0000e+00 -1.0000e+00
       13  1    1    2    0    0 -2.0666119449e+02 +2.3930619642e+02 +9.7835192769e+02 1.0281774163e+03 0.0000000000e+00 0.0000e+00 1.0000e+00
<mgrwt>
<rscale>  0 0.73757536E+03</rscale>
<asrwt>0</asrwt>
<pdfrwt beam="1">  1        2 0.20380225E+00 0.73757536E+03</pdfrwt>
<pdfrwt beam="2">  1       -2 0.15794909E-01 0.73757536E+03</pdfrwt>
<totfact> 0.59034840E+02</totfact>
</mgrwt>
<rwgt>
<wgt id='morphing_basis_vector_1'> +3.1553074e-04 </wgt>
<wgt id='morphing_basis_vector_2'> +1.9006536e-04 </wgt>
<wgt id='morphing_basis_vector_3'> +2.7426136e-04 </wgt>
<wgt id='morphing_basis_vector_4'> +1.4153106e-04 </wgt>
<wgt id='morphing_basis_vector_5'> +2.2259630e-04 </wgt>
</rwgt>
</event>
<event>
 4      1 +5.9529000e-06 6.48340300e+02 7.81860800e-03 9.11807900e-02
        2 -1    0    0  501    0 +0.0000000000e+00 +0.0000000000e+00 +3.3397412842e+02 3.3397412842e+02 0.0000000000e+00 0.0000e+00 -1.0000e+00
       -2 -1    0    0    0  501 -0.0000000000e+00 -0.0000000000e+00 -3.1465401852e+02 3.1465401852e+02 0.0000000000e+00 0.0000e+00 1.0000e+00
      -13  1    1    2    0    0 +2.8252462033e+02 -5.8360490110e+01 -1.3825750841e+02 3.1990818453e+02 0.0000000000e+00 0.0000e+00 1.0000e+00
       13  1    1    2    0    0 -2.8252462033e+02 +5.8360490110e+01 +1.5757761831e+02 3.2871996241e+02 0.0000000000e+00 0.0000e+00 -1.0000e+00
<mgrwt>
<rscale>  0 0.64834035E+03</rscale>
<asrwt>0</asrwt>
<pdfrwt beam="1">  1        2 0.51380635E-01 0.64834035E+03</pdfrwt>
<pdfrwt beam="2">  1       -2 0.48408310E-01 0.64834035E+03</pdfrwt>
<totfact> 0.48101577E+02</totfact>
</mgrwt>
<rwgt>
<wgt id='morphing_basis_vector_1'> +2.0353075e-04 </wgt>
<wgt id='morphing_basis_vector_2'> +1.2012747e-04 </wgt>
<wgt id='morphing_basis_vector_3'> +1.6691663e-04 </wgt>
<wgt id='morphing_basis_vector_4'> +7.7297167e-05 </wgt>
<wgt id='morphing_basis_vector_5'> +1.1993551e-04 </wgt>
</rwgt>
</event>
<event>
 4      1 +5.9529000e-06 6.57013200e+02 7.81860800e-03 9.10413000e-02
        2 -1    0    0  501    0 +0.0000000000e+00 +0.0000000000e+00 +8.6677971392e+01 8.6677971392e+01 0.0000000000e+00 0.0000e+00 -1.0000e+00
       -2 -1    0    0    0  501 -0.0000000000e+00 -0.0000000000e+00 -1.2450288667e+03 1.2450288667e+03 0.0000000000e+00 0.0000e+00 1.0000e+00
      -13  1    1    2    0    0 -3.0846337680e+02 +1.8489362004e+01 -8.0511064451e+02 8.6237733112e+02 0.0000000000e+00 0.0000e+00 1.0000e+00
       13  1    1    2    0    0 +3.0846337680e+02 -1.8489362004e+01 -3.5324025084e+02 4.6932950701e+02 0.0000000000e+00 0.0000e+00 -1.0000e+00
<mgrwt>
<rscale>  0 0.65701317E+03</rscale>
<asrwt>0</asrwt>
<pdfrwt beam="1">  1        2 0.13335073E-01 0.65701317E+03</pdfrwt>
<pdfrwt beam="2">  1       -2 0.19154290E+00 0.65701317E+03</pdfrwt>
<totfact> 0.81348514E+01</totfact>
</mgrwt>
<rwgt>
<wgt id='morphing_basis_vector_1'> +2.1360343e-04 </wgt>
<wgt id='morphing_basis_vector_2'> +1.2842737e-04 </wgt>
<wgt id='morphing_basis_vector_3'> +1.7579844e-04 </wgt>
<wgt id='morphing_basis_vector_4'> +8.1566263e-05 </wgt>
<wgt id='morphing_basis_vector_5'> +1.2801143e-04 </wgt>
</rwgt>
</event>
<event>
 4      1 +5.9529000e-06 6.27530400e+02 7.81860800e-03 9.15250300e-02
        2 -1    0    0  501    0 +0.0000000000e+00 +0.0000000000e+00 +3.9622619706e+02 3.9622619706e+02 0.0000000000e+00 0.0000e+00 1.0000e+00
       -2 -1    0    0    0  501 -0.0000000000e+00 -0.0000000000e+00 -2.4846564766e+02 2.4846564766e+02 0.0000000000e+00 0.0000e+00 -1.0000e+00
      -13  1    1    2    0    0 +1.2059747697e+02 +4.8802116918e+01 -2.1945076550e+02 2.5511573167e+02 0.0000000000e+00 0.0000e+00 -1.0000e+00
       13  1    1    2    0    0 -1.2059747697e+02 -4.8802116918e+01 +3.6721131489e+02 3.8957611304e+02 0.0000000000e+00 0.0000e+00 1.0000e+00
<mgrwt>
<rscale>  0 0.62753039E+03</rscale>
<asrwt>0</asrwt>
<pdfrwt beam="1">  1        2 0.60957876E-01 0.62753039E+03</pdfrwt>
<pdfrwt beam="2">  1       -2 0.38225484E-01 0.62753039E+03</pdfrwt>
<totfact> 0.61992715E+02</totfact>
</mgrwt>
<rwgt>
<wgt id='morphing_basis_vector_1'> +1.8167353e-04 </wgt>
<wgt id='morphing_basis_vector_2'> +1.0417465e-04 </wgt>
<wgt id='morphing_basis_vector_3'> +1.4728721e-04 </wgt>
<wgt id='morphing_basis_vector_4'> +6.6947147e-05 </wgt>
<wgt id='morphing_basis_vector_5'> +1.0200786e-04 </wgt>
</rwgt>
</event>
<event>
 4      1 +5.9529000e-06 6.36249000e+02 7.81860800e-03 9.13791300e-02
        2 -1    0    0  501    0 +0.0000000000e+00 +0.0000000000e+00 +1.0354946381e+02 1.0354946381e+02 0.0000000000e+00 0.0000e+00 -1.0000e+00
       -2 -1    0    0    0  501 -0.0000000000e+00 -0.0000000000e+00 -9.7734167034e+02 9.7734167034e+02 0.0000000000e+00 0.0000e+00 1.0000e+00
      -13  1    1    2    0    0 -3.1043074634e+02 +1.2724788172e+01 -3.2075099693e+02 4.4655388313e+02 0.0000000000e+00 0.0000e+00 1.0000e+00
       13  1    1    2    0    0 +3.1043074634e+02 -1.2724788172e+01 -5.5304120960e+02 6.3433725102e+02 0.0000000000e+00 0.0000e+00 -1.0000e+00
<mgrwt>
<rscale>  0 0.63624903E+03</rscale>
<asrwt>0</asrwt>
<pdfrwt beam="1">  1        2 0.15930688E-01 0.63624903E+03</pdfrwt>
<pdfrwt beam="2">  1       -2 0.15036025E+00 0.63624903E+03</pdfrwt>
<totfact> 0.13620915E+02</totfact>
</mgrwt>
<rwgt>
<wgt id='morphing_basis_vector_1'> +2.0396169e-04 </wgt>
<wgt id='morphing_basis_vector_2'> +1.5203207e-04 </wgt>
<wgt id='morphing_basis_vector_3'> +1.5726102e-04 </wgt>
<wgt id='morphing_basis_vector_4'> +5.9372615e-05 </wgt>
<wgt id='morphing_basis_vector_5'> +1.0917561e-04 </wgt>
</rwgt>
</event>
<event>
 4      1 +5.9529000e-06 6.46232300e+02 7.81860800e-03 9.12150400e-02
        2 -1    0    0  501    0 +0.0000000000e+00 +0.0000000000e+00 +1.6005684097e+03 1.6005684097e+03 0.0000000000e+00 0.0000e+00 1.0000e+00
       -2 -1    0    0    0  501 -0.0000000000e+00 -0.0000000000e+00 -6.5229352656e+01 6.5229352656e+01 0.0000000000e+00 0.0000e+00 -1.0000e+00
      -13  1    1    2    0    0 +2.3858619297e+02 -1.6372090534e+02 +1.1383231969e+03 1.1745244174e+03 0.0000000000e+00 0.0000e+00 1.0000e+00
       13  1    1    2    0    0 -2.3858619297e+02 +1.6372090534e+02 +3.9701586014e+02 4.9127334502e+02 0.0000000000e+00 0.0000e+00 -1.0000e+00
<mgrwt>
<rscale>  0 0.64623228E+03</rscale>
<asrwt>0</asrwt>
<pdfrwt beam="1">  1        2 0.24624126E+00 0.64623228E+03</pdfrwt>
<pdfrwt beam="2">  1       -2 0.10035286E-01 0.64623228E+03</pdfrwt>
<totfact> 0.86058895E+02</totfact>
</mgrwt>
<rwgt>
<wgt id='morphing_basis_vector_1'> +2.3042578e-04 </wgt>
<wgt id='morphing_basis_vector_2'> +2.0874810e-04 </wgt>
<wgt id='morphing_basis_vector_3'> +1.7018127e-04 </wgt>
<wgt id='morphing_basis_vector_4'> +4.9621244e-05 </wgt>
<wgt id='morphing_basis_vector_5'> +1.1771767e-04 </wgt>
</rwgt>
</event>
<event>
 4      1 +5.9529000e-06 6.47589400e+02 7.81860800e-03 9.11929800e-02
        2 -1    0    0  501    0 +0.0000000000e+00 +0.0000000000e+00 +1.7676375086e+02 1.7676375086e+02 0.0000000000e+00 0.0000e+00 -1.0000e+00
       -2 -1    0    0    0  501 -0.0000000000e+00 -0.0000000000e+00 -5.9312504724e+02 5.9312504724e+02 0.0000000000e+00 0.0000e+00 1.0000e+00
      -13  1    1    2    0    0 +3.1351652773e+02 +7.6108183333e+00 -3.0397353395e+02 4.3674986784e+02 0.0000000000e+00 0.0000e+00 1.0000e+00
       13  1    1    2    0    0 -3.1351652773e+02 -7.6108183333e+00 -1.1238776242e+02 3.3313893026e+02 0.0000000000e+00 0.0000e+00 -1.0000e+00
<mgrwt>
<rscale>  0 0.64758940E+03</rscale>
<asrwt>0</asrwt>
<pdfrwt beam="1">  1        2 0.27194423E-01 0.64758940E+03</pdfrwt>
<pdfrwt beam="2">  1       -2 0.91250008E-01 0.64758940E+03</pdfrwt>
<totfact> 0.25903484E+02</totfact>
</mgrwt>
<rwgt>
<wgt id='morphing_basis_vector_1'> +2.0436142e-04 </wgt>
<wgt id='morphing_basis_vector_2'> +1.2463770e-04 </wgt>
<wgt id='morphing_basis_vector_3'> +1.6648249e-04 </wgt>
<wgt id='morphing_basis_vector_4'> +7.5393900e-05 </wgt>
<wgt id='morphing_basis_vector_5'> +1.1923481e-04 </wgt>
</rwgt>
</event>
<event>
 4      1 +5.9529000e-06 6.83200400e+02 7.81860800e-03 9.06334100e-02
        2 -1    0    0  501    0 +0.0000000000e+00 +0.0000000000e+00 +7.0790658838e+02 7.0790658838e+02 0.0000000000e+00 0.0000e+00 -1.0000e+00
       -2 -1    0    0    0  501 -0.0000000000e+00 -0.0000000000e+00 -1.6483910642e+02 1.6483910642e+02 0.0000000000e+00 0.0000e+00 1.0000e+00
      -13  1    1    2    0    0 +9.4251796878e+01 +9.0508289375e+01 -1.3165013772e+02 1.8549099822e+02 0.0000000000e+00 0.0000e+00 1.0000e+00
       13  1    1    2    0    0 -9.4251796878e+01 -9.0508289375e+01 +6.7471761968e+02 6.8725469657e+02 0.0000000000e+00 0.0000e+00 -1.0000e+00
<mgrwt>
<rscale>  0 0.68320038E+03</rscale>
<asrwt>0</asrwt>
<pdfrwt beam="1">  1        2 0.10890870E+00 0.68320038E+03</pdfrwt>
<pdfrwt beam="2">  1       -2 0.25359863E-01 0.68320038E+03</pdfrwt>
<totfact> 0.65479476E+02</totfact>
</mgrwt>
<rwgt>
<wgt id='morphing_basis_vector_1'> +2.4158669e-04 </wgt>
<wgt id='morphing_basis_vector_2'> +1.4099663e-04 </wgt>
<wgt id='morphing_basis_vector_3'> +2.0369408e-04 </wgt>
<wgt id='morphing_basis_vector_4'> +1.0020738e-04 </wgt>
<wgt id='morphing_basis_vector_5'> +1.5479831e-04 </wgt>
</rwgt>
</event>
<event>
 4      1 +5.9529000e-06 6.91138000e+02 7.81860800e-03 9.05135300e-02
        2 -1    0    0  501    0 +0.0000000000e+00 +0.0000000000e+00 +1.2835873270e+03 1.2835873270e+03 0.0000000000e+00 0.0000e+00 -1.0000e+00
       -2 -1    0    0    0  501 -0.0000000000e+00 -0.0000000000e+00 -9.3034519198e+01 9.3034519198e+01 0.0000000000e+00 0.0000e+00 1.0000e+00
      -13  1    1    2    0    0 +1.2565952039e+02 -2.9858223865e+02 +3.5562603461e+02 4.8105253850e+02 0.0000000000e+00 0.0000e+00 1.0000e+00
       13  1    1    2    0    0 -1.2565952039e+02 +2.9858223865e+02 +8.3492677321e+02 8.9556930771e+02 0.0000000000e+00 0.0000e+00 -1.0000e+00
<mgrwt>
<rscale>  0 0.69113799E+03</rscale>
<asrwt>0</asrwt>
<pdfrwt beam="1">  1        2 0.19747496E+00 0.69113799E+03</pdfrwt>
<pdfrwt beam="2">  1       -2 0.14313004E-01 0.69113799E+03</pdfrwt>
<totfact> 0.73200047E+02</totfact>
</mgrwt>
<rwgt>
<wgt id='morphing_basis_vector_1'> +2.5345939e-04 </wgt>
<wgt id='morphing_basis_vector_2'> +1.5373365e-04 </wgt>
<wgt id='morphing_basis_vector_3'> +2.1364411e-04 </wgt>
<wgt id='morphing_basis_vector_4'> +1.0352353e-04 </wgt>
<wgt id='morphing_basis_vector_5'> +1.6357927e-04 </wgt>
</rwgt>
</event>
<event>
 4      1 +5.9529000e-06 7.02325300e+02 7.81860800e-03 9.03473800e-02
        2 -1    0    0  501    0 +0.0000000000e+00 +0.0000000000e+00 +7.3881754787e+02 7.3881754787e+02 0.0000000000e+00 0.0000e+00 -1.0000e+00
       -2 -1    0    0    0  501 -0.0000000000e+00 -0.0000000000e+00 -1.6690888672e+02 1.6690888672e+02 0.0000000000e+00 0.0000e+00 1.0000e+00
      -13  1    1    2    0    0 -6.2015576355e+01 +2.6421559166e+02 -1.4276060647e+00 2.7139979485e+02 0.0000000000e+00 0.0000e+00 1.0000e+00
       13  1    1    2    0    0 +6.2015576355e+01 -2.6421559166e+02 +5.7333626721e+02 6.3432663974e+02 0.0000000000e+00 0.0000e+00 -1.0000e+00
<mgrwt>
<rscale>  0 0.70232532E+03</rscale>
<asrwt>0</asrwt>
<pdfrwt beam="1">  1        2 0.11366424E+00 0.70232532E+03</pdfrwt>
<pdfrwt beam="2">  1       -2 0.25678291E-01 0.70232532E+03</pdfrwt>
<totfact> 0.60764035E+02</totfact>
</mgrwt>
<rwgt>
<wgt id='morphing_basis_vector_1'> +2.6594685e-04 </wgt>
<wgt id='morphing_basis_vector_2'> +1.5732543e-04 </wgt>
<wgt id='morphing_basis_vector_3'> +2.2669172e-04 </wgt>
<wgt id='morphing_basis_vector_4'> +1.1346754e-04 </wgt>
<wgt id='morphing_basis_vector_5'> +1.7666970e-04 </wgt>
</rwgt>
</event>
<event>
 4      1 +5.9529000e-06 6.88752500e+02 7.81860800e-03 9.05493800e-02
        2 -1    0    0  501    0 +0.0000000000e+00 +0.0000000000e+00 +5.8406303737e+02 5.8406303737e+02 0.0000000000e+00 0.0000e+00 -1.0000e+00
       -2 -1    0    0    0  501 -0.0000000000e+00 -0.0000000000e+00 -2.0305169163e+02 2.0305169163e+02 0.0000000000e+00 0.0000e+00 1.0000e+00
      -13  1    1    2    0    0 -3.3731329980e+02 +6.6711818612e+01 +1.6869445593e+02 3.8299941048e+02 0.0000000000e+00 0.0000e+00 1.0000e+00
       13  1    1    2    0    0 +3.3731329980e+02 -6.6711818612e+01 +2.1231688981e+02 4.0411531852e+02 0.0000000000e+00 0.0000e+00 -1.0000e+00
<mgrwt>
<rscale>  0 0.68875246E+03</rscale>
<asrwt>0</asrwt>
<pdfrwt beam="1">  1        2 0.89855851E-01 0.68875246E+03</pdfrwt>
<pdfrwt beam="2">  1       -2 0.31238722E-01 0.68875246E+03</pdfrwt>
<totfact> 0.57261074E+02</totfact>
</mgrwt>
<rwgt>
<wgt id='morphing_basis_vector_1'> +2.5534484e-04 </wgt>
<wgt id='morphing_basis_vector_2'> +1.6680665e-04 </wgt>
<wgt id='morphing_basis_vector_3'> +2.1234319e-04 </wgt>
<wgt id='morphing_basis_vector_4'> +9.6898084e-05 </wgt>
<wgt id='morphing_basis_vector_5'> +1.6077368e-04 </wgt>
</rwgt>
</event>
<event>
 4      1 +5.9529000e-06 7.18366200e+02 7.81860800e-03 9.01146800e-02
        2 -1    0    0  501    0 +0.0000000000e+00 +0.0000000000e+00 +7.4063856348e+02 7.4063856348e+02 0.0000000000e+00 0.0000e+00 -1.0000e+00
       -2 -1    0    0    0  501 -0.0000000000e+00 -0.0000000000e+00 -1.7419091247e+02 1.7419091247e+02 0.0000000000e+00 0.0000e+00 1.0000e+00
      -13  1    1    2    0    0 -1.2374003699e+02 +3.3085044207e+02 +2.0031121364e+02 4.0607658648e+02 0.0000000000e+00 0.0000e+00 1.0000e+00
       13  1    1    2    0    0 +1.2374003699e+02 -3.3085044207e+02 +3.6613643736e+02 5.0875288946e+02 0.0000000000e+00 0.0000e+00 -1.0000e+00
<mgrwt>
<rscale>  0 0.71836622E+03</rscale>
<asrwt>0</asrwt>
<pdfrwt beam="1">  1        2 0.11394439E+00 0.71836622E+03</pdfrwt>
<pdfrwt beam="2">  1       -2 0.26798602E-01 0.71836622E+03</pdfrwt>
<totfact> 0.56246405E+02</totfact>
</mgrwt>
<rwgt>
<wgt id='morphing_basis_vector_1'> +2.9191598e-04 </wgt>
<wgt id='morphing_basis_vector_2'> +1.8466099e-04 </wgt>
<wgt id='morphing_basis_vector_3'> +2.4915360e-04 </wgt>
<wgt id='morphing_basis_vector_4'> +1.2105315e-04 </wgt>
<wgt id='morphing_basis_vector_5'> +1.9649814e-04 </wgt>
</rwgt>
</event>
<event>
 4      1 +5.9529000e-06 6.41575000e+02 7.81860800e-03 9.12912000e-02
        2 -1    0    0  501    0 +0.0000000000e+00 +0.0000000000e+00 +2.3072709172e+03 2.3072709172e+03 0.0000000000e+00 0.0000e+00 1.0000e+00
       -2 -1    0    0    0  501 -0.0000000000e+00 -0.0000000000e+00 -4.4600139402e+01 4.4600139402e+01 0.0000000000e+00 0.0000e+00 -1.0000e+00
      -13  1    1    2    0    0 -3.0741090090e+02 +4.3938091979e+01 +8.3641483313e+02 8.9220053295e+02 0.0000000000e+00 0.0000e+00 1.0000e+00
       13  1    1    2    0    0 +3.0741090090e+02 -4.3938091979e+01 +1.4262559447e+03 1.4596705237e+03 0.0000000000e+00 0.0000e+00 -1.0000e+00
<mgrwt>
<rscale>  0 0.64157495E+03</rscale>
<asrwt>0</asrwt>
<pdfrwt beam="1">  1        2 0.35496466E+00 0.64157495E+03</pdfrwt>
<pdfrwt beam="2">  1       -2 0.68615617E-02 0.64157495E+03</pdfrwt>
<totfact> 0.63365101E+02</totfact>
</mgrwt>
<rwgt>
<wgt id='morphing_basis_vector_1'> +1.9807275e-04 </wgt>
<wgt id='morphing_basis_vector_2'> +1.2052555e-04 </wgt>
<wgt id='morphing_basis_vector_3'> +1.6062112e-04 </wgt>
<wgt id='morphing_basis_vector_4'> +7.2148171e-05 </wgt>
<wgt id='morphing_basis_vector_5'> +1.1386758e-04 </wgt>
</rwgt>
</event>
<event>
 4      1 +5.9529000e-06 6.55276500e+02 7.81860800e-03 9.10690500e-02
        2 -1    0    0  501    0 +0.0000000000e+00 +0.0000000000e+00 +2.7378557165e+02 2.7378557165e+02 0.0000000000e+00 0.0000e+00 -1.0000e+00
       -2 -1    0    0    0  501 -0.0000000000e+00 -0.0000000000e+00 -3.9208360722e+02 3.9208360722e+02 0.0000000000e+00 0.0000e+00 1.0000e+00
      -13  1    1    2    0    0 -1.9813302906e+02 -1.3858608975e+02 -2.8382042777e+02 3.7284961673e+02 0.0000000000e+00 0.0000e+00 1.0000e+00
       13  1    1    2    0    0 +1.9813302906e+02 +1.3858608975e+02 +1.6552239220e+02 2.9301956214e+02 0.0000000000e+00 0.0000e+00 -1.0000e+00
<mgrwt>
<rscale>  0 0.65527654E+03</rscale>
<asrwt>0</asrwt>
<pdfrwt beam="1">  1        2 0.42120857E-01 0.65527654E+03</pdfrwt>
<pdfrwt beam="2">  1       -2 0.60320555E-01 0.65527654E+03</pdfrwt>
<totfact> 0.38798820E+02</totfact>
</mgrwt>
<rwgt>
<wgt id='morphing_basis_vector_1'> +2.1011825e-04 </wgt>
<wgt id='morphing_basis_vector_2'> +1.2229094e-04 </wgt>
<wgt id='morphing_basis_vector_3'> +1.7368190e-04 </wgt>
<wgt id='morphing_basis_vector_4'> +8.2044964e-05 </wgt>
<wgt id='morphing_basis_vector_5'> +1.2638433e-04 </wgt>
</rwgt>
</event>
<event>
 4      1 +5.9529000e-06 7.45851300e+02 7.81860800e-03 8.97304300e-02
        2 -1    0    0  501    0 +0.0000000000e+00 +0.0000000000e+00 +3.9741499355e+02 3.9741499355e+02 0.0000000000e+00 0.0000e+00 1.0000e+00
       -2 -1    0    0    0  501 -0.0000000000e+00 -0.0000000000e+00 -3.4994533624e+02 3.4994533624e+02 0.0000000000e+00 0.0000e+00 -1.0000e+00
      -13  1    1    2    0    0 -4.6833061185e+01 +1.5123147349e+02 -3.1460086862e+02 3.5219029051e+02 0.0000000000e+00 0.0000e+00 -1.0000e+00
       13  1    1    2    0    0 +4.6833061185e+01 -1.5123147349e+02 +3.6207052593e+02 3.9517003927e+02 0.0000000000e+00 0.0000e+00 1.0000e+00
<mgrwt>
<rscale>  0 0.74585125E+03</rscale>
<asrwt>0</asrwt>
<pdfrwt beam="1">  1        2 0.61140768E-01 0.74585125E+03</pdfrwt>
<pdfrwt beam="2">  1       -2 0.53837744E-01 0.74585125E+03</pdfrwt>
<totfact> 0.31986699E+02</totfact>
</mgrwt>
<rwgt>
<wgt id='morphing_basis_vector_1'> +3.2676629e-04 </wgt>
<wgt id='morphing_basis_vector_2'> +1.9417328e-04 </wgt>
<wgt id='morphing_basis_vector_3'> +2.8582315e-04 </wgt>
<wgt id='morphing_basis_vector_4'> +1.5039481e-04 </wgt>
<wgt id='morphing_basis_vector_5'> +2.3455511e-04 </wgt>
</rwgt>
</event>
<event>
 4      1 +5.9529000e-06 7.01979000e+02 7.81860800e-03 9.03524800e-02
        2 -1    0    0  501    0 +0.0000000000e+00 +0.0000000000e+00 +1.4578991474e+02 1.4578991474e+02 0.0000000000e+00 0.0000e+00 -1.0000e+00
       -2 -1    0    0    0  501 -0.0000000000e+00 -0.0000000000e+00 -8.4500797006e+02 8.4500797006e+02 0.0000000000e+00 0.0000e+00 1.0000e+00
      -13  1    1    2    0    0 -1.9205504103e+02 -2.9056700036e+02 -4.1079631975e+02 5.3857955475e+02 0.0000000000e+00 0.0000e+00 1.0000e+00
       13  1    1    2    0    0 +1.9205504103e+02 +2.9056700036e+02 -2.8842173557e+02 4.5221833005e+02 0.0000000000e+00 0.0000e+00 -1.0000e+00
<mgrwt>
<rscale>  0 0.70197903E+03</rscale>
<asrwt>0</asrwt>
<pdfrwt beam="1">  1        2 0.22429217E-01 0.70197903E+03</pdfrwt>
<pdfrwt beam="2">  1       -2 0.13000123E+00 0.70197903E+03</pdfrwt>
<totfact> 0.13416167E+02</totfact>
</mgrwt>
<rwgt>
<wgt id='morphing_basis_vector_1'> +2.7081094e-04 </wgt>
<wgt id='morphing_basis_vector_2'> +1.7341939e-04 </wgt>
<wgt id='morphing_basis_vector_3'> +2.2814276e-04 </wgt>
<wgt id='morphing_basis_vector_4'> +1.0759652e-04 </wgt>
<wgt id='morphing_basis_vector_5'> +1.7610717e-04 </wgt>
</rwgt>
</event>
<event>
 4      1 +5.9529000e-06 6.52183000e+02 7.81860800e-03 9.11187100e-02
        2 -1    0    0  501    0 +0.0000000000e+00 +0.0000000000e+00 +7.3690086497e+02 7.3690086497e+02 0.0000000000e+00 0.0000e+00 -1.0000e+00
       -2 -1    0    0    0  501 -0.0000000000e+00 -0.0000000000e+00 -1.4430120313e+02 1.4430120313e+02 0.0000000000e+00 0.0000e+00 1.0000e+00
      -13  1    1    2    0    0 -8.7769385542e+01 -3.0396983707e+02 +1.8961351550e+02 3.6885554374e+02 0.0000000000e+00 0.0000e+00 1.0000e+00
       13  1    1    2    0    0 +8.7769385542e+01 +3.0396983707e+02 +4.0298614634e+02 5.1234652436e+02 0.0000000000e+00 0.0000e+00 -1.0000e+00
<mgrwt>
<rscale>  0 0.65218305E+03</rscale>
<asrwt>0</asrwt>
<pdfrwt beam="1">  1        2 0.11336936E+00 0.65218305E+03</pdfrwt>
<pdfrwt beam="2">  1       -2 0.22200186E-01 0.65218305E+03</pdfrwt>
<totfact> 0.78180181E+02</totfact>
</mgrwt>
<rwgt>
<wgt id='morphing_basis_vector_1'> +2.0933106e-04 </wgt>
<wgt id='morphing_basis_vector_2'> +1.2803870e-04 </wgt>
<wgt id='morphing_basis_vector_3'> +1.7108314e-04 </wgt>
<wgt id='morphing_basis_vector_4'> +7.7887657e-05 </wgt>
<wgt id='morphing_basis_vector_5'> +1.2345128e-04 </wgt>
</rwgt>
</event>
<event>
 4      1 +5.9529000e-06 6.64356800e+02 7.81860800e-03 9.09249400e-02
        2 -1    0    0  501    0 +0.0000000000e+00 +0.0000000000e+00 +7.3735472645e+02 7.3735472645e+02 0.0000000000e+00 0.0000e+00 1.0000e+00
       -2 -1    0    0    0  501 -0.0000000000e+00 -0.0000000000e+00 -1.4964643141e+02 1.4964643141e+02 0.0000000000e+00 0.0000e+00 -1.0000e+00
      -13  1    1    2    0    0 -2.3013595376e+02 +4.4057358292e+01 +6.0821615900e+02 6.5179023014e+02 0.0000000000e+00 0.0000e+00 1.0000e+00
       13  1    1    2    0    0 +2.3013595376e+02 -4.4057358292e+01 -2.0507863965e+01 2.3521092772e+02 0.0000000000e+00 0.0000e+00 -1.0000e+00
<mgrwt>
<rscale>  0 0.66435684E+03</rscale>
<asrwt>0</asrwt>
<pdfrwt beam="1">  1        2 0.11343919E+00 0.66435684E+03</pdfrwt>
<pdfrwt beam="2">  1       -2 0.23022528E-01 0.66435684E+03</pdfrwt>
<totfact> 0.73451518E+02</totfact>
</mgrwt>
<rwgt>
<wgt id='morphing_basis_vector_1'> +2.8217407e-04 </wgt>
<wgt id='morphing_basis_vector_2'> +3.2032428e-04 </wgt>
<wgt id='morphing_basis_vector_3'> +1.9807885e-04 </wgt>
<wgt id='morphing_basis_vector_4'> +2.7925150e-05 </wgt>
<wgt id='morphing_basis_vector_5'> +1.3416075e-04 </wgt>
</rwgt>
</event>
<event>
 4      1 +5.9529000e-06 6.22608700e+02 7.81860800e-03 9.16085100e-02
        2 -1    0    0  501    0 +0.0000000000e+00 +0.0000000000e+00 +7.7200455871e+02 7.7200455871e+02 0.0000000000e+00 0.0000e+00 -1.0000e+00
       -2 -1    0    0    0  501 -0.0000000000e+00 -0.0000000000e+00 -1.2553086814e+02 1.2553086814e+02 0.0000000000e+00 0.0000e+00 1.0000e+00
      -13  1    1    2    0    0 -1.5615657653e+02 +1.1771518122e+02 -2.5935225123e+01 1.9726727094e+02 0.0000000000e+00 0.0000e+00 1.0000e+00
       13  1    1    2    0    0 +1.5615657653e+02 -1.1771518122e+02 +6.7240891569e+02 7.0026815591e+02 0.0000000000e+00 0.0000e+00 -1.0000e+00
<mgrwt>
<rscale>  0 0.62260871E+03</rscale>
<asrwt>0</asrwt>
<pdfrwt beam="1">  1        2 0.11876993E+00 0.62260871E+03</pdfrwt>
<pdfrwt beam="2">  1       -2 0.19312442E-01 0.62260871E+03</pdfrwt>
<totfact> 0.93154581E+02</totfact>
</mgrwt>
<rwgt>
<wgt id='morphing_basis_vector_1'> +1.7710009e-04 </wgt>
<wgt id='morphing_basis_vector_2'> +1.0161033e-04 </wgt>
<wgt id='morphing_basis_vector_3'> +1.4297194e-04 </wgt>
<wgt id='morphing_basis_vector_4'> +6.4382443e-05 </wgt>
<wgt id='morphing_basis_vector_5'> +9.8057645e-05 </wgt>
</rwgt>
</event>
<event>
 4      1 +5.9529000e-06 6.60150200e+02 7.81860800e-03 9.09914000e-02
        2 -1    0    0  501    0 +0.0000000000e+00 +0.0000000000e+00 +1.2488420934e+03 1.2488420934e+03 0.0000000000e+00 0.0000e+00 1.0000e+00
       -2 -1    0    0    0  501 -0.0000000000e+00 -0.0000000000e+00 -8.7240462893e+01 8.7240462893e+01 0.0000000000e+00 0.0000e+00 -1.0000e+00
      -13  1    1    2    0    0 +2.7635841170e+02 +1.0830224180e+02 +2.8858470212e+02 4.1398608382e+02 0.0000000000e+00 0.0000e+00 -1.0000e+00
       13  1    1    2    0    0 -2.7635841170e+02 -1.0830224180e+02 +8.7301692834e+02 9.2209647243e+02 0.0000000000e+00 0.0000e+00 1.0000e+00
<mgrwt>
<rscale>  0 0.66015017E+03</rscale>
<asrwt>0</asrwt>
<pdfrwt beam="1">  1        2 0.19212954E+00 0.66015017E+03</pdfrwt>
<pdfrwt beam="2">  1       -2 0.13421611E-01 0.66015017E+03</pdfrwt>
<totfact> 0.85053433E+02</totfact>
</mgrwt>
<rwgt>
<wgt id='morphing_basis_vector_1'> +2.1634181e-04 </wgt>
<wgt id='morphing_basis_vector_2'> +1.2843429e-04 </wgt>
<wgt id='morphing_basis_vector_3'> +1.7888230e-04 </wgt>
<wgt id='morphing_basis_vector_4'> +8.4094416e-05 </wgt>
<wgt id='morphing_basis_vector_5'> +1.3103846e-04 </wgt>
</rwgt>
</event>
<event>
 4      1 +5.9529000e-06 6.48777100e+02 7.81860800e-03 9.11737100e-02
        2 -1    0    0  501    0 +0.0000000000e+00 +0.0000000000e+00 +2.4944889431e+03 2.4944889431e+03 0.0000000000e+00 0.0000e+00 -1.0000e+00
       -2 -1    0    0    0  501 -0.0000000000e+00 -0.0000000000e+00 -4.2184161028e+01 4.2184161028e+01 0.0000000000e+00 0.0000e+00 1.0000e+00
      -13  1    1    2    0    0 +1.7661612615e+02 -2.4291004201e+02 +7.4681696967e+02 8.0494355746e+02 0.0000000000e+00 0.0000e+00 1.0000e+00
       13  1    1    2    0    0 -1.7661612615e+02 +2.4291004201e+02 +1.7054878124e+03 1.7317295467e+03 0.0000000000e+00 0.0000e+00 -1.0000e+00
<mgrwt>
<rscale>  0 0.64877707E+03</rscale>
<asrwt>0</asrwt>
<pdfrwt beam="1">  1        2 0.38376741E+00 0.64877707E+03</pdfrwt>
<pdfrwt beam="2">  1       -2 0.64898729E-02 0.64877707E+03</pdfrwt>
<totfact> 0.53863741E+02</totfact>
</mgrwt>
<rwgt>
<wgt id='morphing_basis_vector_1'> +2.0446819e-04 </wgt>
<wgt id='morphing_basis_vector_2'> +1.2189499e-04 </wgt>
<wgt id='morphing_basis_vector_3'> +1.6743849e-04 </wgt>
<wgt id='morphing_basis_vector_4'> +7.7105660e-05 </wgt>
<wgt id='morphing_basis_vector_5'> +1.2032845e-04 </wgt>
</rwgt>
</event>
<event>
 4      1 +5.9529000e-06 6.69992500e+02 7.81860800e-03 9.08367000e-02
        2 -1    0    0  501    0 +0.0000000000e+00 +0.0000000000e+00 +9.5483062715e+02 9.5483062715e+02 0.0000000000e+00 0.0000e+00 -1.0000e+00
       -2 -1    0    0    0  501 -0.0000000000e+00 -0.0000000000e+00 -1.1753129933e+02 1.1753129933e+02 0.0000000000e+00 0.0000e+00 1.0000e+00
      -13  1    1    2    0    0 +8.2318173626e+01 +1.3077098654e+02 -5.7082825169e+01 1.6472941923e+02 0.0000000000e+00 0.0000e+00 1.0000e+00
       13  1    1    2    0    0 -8.2318173626e+01 -1.3077098654e+02 +8.9438215299e+02 9.0763250725e+02 0.0000000000e+00 0.0000e+00 -1.0000e+00
<mgrwt>
<rscale>  0 0.66999249E+03</rscale>
<asrwt>0</asrwt>
<pdfrwt beam="1">  1        2 0.14689701E+00 0.66999249E+03</pdfrwt>
<pdfrwt beam="2">  1       -2 0.18081739E-01 0.66999249E+03</pdfrwt>
<totfact> 0.78436384E+02</totfact>
</mgrwt>
<rwgt>
<wgt id='morphing_basis_vector_1'> +2.2613931e-04 </wgt>
<wgt id='morphing_basis_vector_2'> +1.3148980e-04 </wgt>
<wgt id='morphing_basis_vector_3'> +1.8900822e-04 </wgt>
<wgt id='morphing_basis_vector_4'> +9.1408792e-05 </wgt>
<wgt id='morphing_basis_vector_5'> +1.4085337e-04 </wgt>
</rwgt>
</event>
<event>
 4      1 +5.9529000e-06 6.24605300e+02 7.81860800e-03 9.15745500e-02
        2 -1    0    0  501    0 +0.0000000000e+00 +0.0000000000e+00 +5.4021764758e+02 5.4021764758e+02 0.0000000000e+00 0.0000e+00 -1.0000e+00
       -2 -1    0    0    0  501 -0.0000000000e+00 -0.0000000000e+00 -1.8054379059e+02 1.8054379059e+02 0.0000000000e+00 0.0000e+00 1.0000e+00
      -13  1    1    2    0    0 -1.1238394979e+02 +4.3833036862e+01 -1.5257485247e+02 1.9450083007e+02 0.0000000000e+00 0.0000e+00 1.0000e+00
       13  1    1    2    0    0 +1.1238394979e+02 -4.3833036862e+01 +5.1224870946e+02 5.2626060810e+02 0.0000000000e+00 0.0000e+00 -1.0000e+00
<mgrwt>
<rscale>  0 0.62460529E+03</rscale>
<asrwt>0</asrwt>
<pdfrwt beam="1">  1        2 0.83110407E-01 0.62460529E+03</pdfrwt>
<pdfrwt beam="2">  1       -2 0.27775968E-01 0.62460529E+03</pdfrwt>
<totfact> 0.77151913E+02</totfact>
</mgrwt>
<rwgt>
<wgt id='morphing_basis_vector_1'> +1.7888665e-04 </wgt>
<wgt id='morphing_basis_vector_2'> +1.0246634e-04 </wgt>
<wgt id='morphing_basis_vector_3'> +1.4470446e-04 </wgt>
<wgt id='morphing_basis_vector_4'> +6.5462595e-05 </wgt>
<wgt id='morphing_basis_vector_5'> +9.9647143e-05 </wgt>
</rwgt>
</event>
<event>
 4      1 +5.9529000e-06 6.61350300e+02 7.81860800e-03 9.09723900e-02
        2 -1    0    0  501    0 +0.0000000000e+00 +0.0000000000e+00 +1.5340259337e+03 1.5340259337e+03 0.0000000000e+00 0.0000e+00 -1.0000e+00
       -2 -1    0    0    0  501 -0.0000000000e+00 -0.0000000000e+00 -7.1280451001e+01 7.1280451001e+01 0.0000000000e+00 0.0000e+00 1.0000e+00
      -13  1    1    2    0    0 -4.1031867017e+01 +2.6189437334e+02 +2.5156295693e+02 3.6545341454e+02 0.0000000000e+00 0.0000e+00 1.0000e+00
       13  1    1    2    0    0 +4.1031867017e+01 -2.6189437334e+02 +1.2111825258e+03 1.2398529702e+03 0.0000000000e+00 0.0000e+00 -1.0000e+00
<mgrwt>
<rscale>  0 0.66135032E+03</rscale>
<asrwt>0</asrwt>
<pdfrwt beam="1">  1        2 0.23600397E+00 0.66135032E+03</pdfrwt>
<pdfrwt beam="2">  1       -2 0.10966224E-01 0.66135032E+03</pdfrwt>
<totfact> 0.81340081E+02</totfact>
</mgrwt>
<rwgt>
<wgt id='morphing_basis_vector_1'> +2.1694366e-04 </wgt>
<wgt id='morphing_basis_vector_2'> +1.2703145e-04 </wgt>
<wgt id='morphing_basis_vector_3'> +1.7996438e-04 </wgt>
<wgt id='morphing_basis_vector_4'> +8.5508467e-05 </wgt>
<wgt id='morphing_basis_vector_5'> +1.3221710e-04 </wgt>
</rwgt>
</event>
<event>
 4      1 +5.9529000e-06 6.81521500e+02 7.81860800e-03 9.06589800e-02
        2 -1    0    0  501    0 +0.0000000000e+00 +0.0000000000e+00 +1.2720797087e+03 1.2720797087e+03 0.0000000000e+00 0.0000e+00 1.0000e+00
       -2 -1    0    0    0  501 -0.0000000000e+00 -0.0000000000e+00 -9.1281930128e+01 9.1281930128e+01 0.0000000000e+00 0.0000e+00 -1.0000e+00
      -13  1    1    2    0    0 -1.5951179566e+02 +1.7048503913e+02 +1.0869370500e+03 1.1117289743e+03 0.0000000000e+00 0.0000e+00 1.0000e+00
       13  1    1    2    0    0 +1.5951179566e+02 -1.7048503913e+02 +9.3860728597e+01 2.5163266460e+02 0.0000000000e+00 0.0000e+00 -1.0000e+00
<mgrwt>
<rscale>  0 0.68152151E+03</rscale>
<asrwt>0</asrwt>
<pdfrwt beam="1">  1        2 0.19570456E+00 0.68152151E+03</pdfrwt>
<pdfrwt beam="2">  1       -2 0.14043375E-01 0.68152151E+03</pdfrwt>
<totfact> 0.76650249E+02</totfact>
</mgrwt>
<rwgt>
<wgt id='morphing_basis_vector_1'> +3.0997597e-04 </wgt>
<wgt id='morphing_basis_vector_2'> +3.5701959e-04 </wgt>
<wgt id='morphing_basis_vector_3'> +2.2251528e-04 </wgt>
<wgt id='morphing_basis_vector_4'> +2.8284505e-05 </wgt>
<wgt id='morphing_basis_vector_5'> +1.5144528e-04 </wgt>
</rwgt>
</event>
<event>
 4      1 +5.9529000e-06 7.24896100e+02 7.81860800e-03 9.00217600e-02
        2 -1    0    0  501    0 +0.0000000000e+00 +0.0000000000e+00 +1.4257722522e+03 1.4257722522e+03 0.0000000000e+00 0.0000e+00 -1.0000e+00
       -2 -1    0    0    0  501 -0.0000000000e+00 -0.0000000000e+00 -9.2138562961e+01 9.2138562961e+01 0.0000000000e+00 0.0000e+00 1.0000e+00
      -13  1    1    2    0    0 +7.2717546096e+01 +3.0916923465e+02 +3.0114978047e+02 4.3768098821e+02 0.0000000000e+00 0.0000e+00 1.0000e+00
       13  1    1    2    0    0 -7.2717546096e+01 -3.0916923465e+02 +1.0324839088e+03 1.0802298269e+03 0.0000000000e+00 0.0000e+00 -1.0000e+00
<mgrwt>
<rscale>  0 0.72489615E+03</rscale>
<asrwt>0</asrwt>
<pdfrwt beam="1">  1        2 0.21934956E+00 0.72489615E+03</pdfrwt>
<pdfrwt beam="2">  1       -2 0.14175165E-01 0.72489615E+03</pdfrwt>
<totfact> 0.61785017E+02</totfact>
</mgrwt>
<rwgt>
<wgt id='morphing_basis_vector_1'> +2.9734775e-04 </wgt>
<wgt id='morphing_basis_vector_2'> +1.7904085e-04 </wgt>
<wgt id='morphing_basis_vector_3'> +2.5650908e-04 </wgt>
<wgt id='morphing_basis_vector_4'> +1.3045020e-04 </wgt>
<wgt id='morphing_basis_vector_5'> +2.0519008e-04 </wgt>
</rwgt>
</event>
<event>
 4      1 +5.9529000e-06 7.44476800e+02 7.81860800e-03 8.97492200e-02
        2 -1    0    0  501    0 +0.0000000000e+00 +0.0000000000e+00 +8.7898879472e+02 8.7898879472e+02 0.0000000000e+00 0.0000e+00 -1.0000e+00
       -2 -1    0    0    0  501 -0.0000000000e+00 -0.0000000000e+00 -1.5763731806e+02 1.5763731806e+02 0.0000000000e+00 0.0000e+00 1.0000e+00
      -13  1    1    2    0    0 +1.4382893986e+02 -3.4041250366e+02 +4.2285327264e+02 5.6158020511e+02 0.0000000000e+00 0.0000e+00 1.0000e+00
       13  1    1    2    0    0 -1.4382893986e+02 +3.4041250366e+02 +2.9849820402e+02 4.7504590767e+02 0.0000000000e+00 0.0000e+00 -1.0000e+00
<mgrwt>
<rscale>  0 0.74447683E+03</rscale>
<asrwt>0</asrwt>
<pdfrwt beam="1">  1        2 0.13522904E+00 0.74447683E+03</pdfrwt>
<pdfrwt beam="2">  1       -2 0.24251896E-01 0.74447683E+03</pdfrwt>
<totfact> 0.53539189E+02</totfact>
</mgrwt>
<rwgt>
<wgt id='morphing_basis_vector_1'> +3.4198507e-04 </wgt>
<wgt id='morphing_basis_vector_2'> +2.4606219e-04 </wgt>
<wgt id='morphing_basis_vector_3'> +2.9187947e-04 </wgt>
<wgt id='morphing_basis_vector_4'> +1.2917804e-04 </wgt>
<wgt id='morphing_basis_vector_5'> +2.3185689e-04 </wgt>
</rwgt>
</event>
<event>
 4      1 +5.9529000e-06 6.84970100e+02 7.81860800e-03 9.06065400e-02
        2 -1    0    0  501    0 +0.0000000000e+00 +0.0000000000e+00 +9.1950800429e+02 9.1950800429e+02 0.0000000000e+00 0.0000e+00 1.0000e+00
       -2 -1    0    0    0  501 -0.0000000000e+00 -0.0000000000e+00 -1.2756388413e+02 1.2756388413e+02 0.0000000000e+00 0.0000e+00 -1.0000e+00
      -13  1    1    2    0    0 -3.1386681305e+01 +1.5055436316e+02 +8.6375619664e+02 8.7734058795e+02 0.0000000000e+00 0.0000e+00 1.0000e+00
       13  1    1    2    0    0 +3.1386681305e+01 -1.5055436316e+02 -7.1812076481e+01 1.6973130047e+02 0.0000000000e+00 0.0000e+00 -1.0000e+00
<mgrwt>
<rscale>  0 0.68497011E+03</rscale>
<asrwt>0</asrwt>
<pdfrwt beam="1">  1        2 0.14146277E+00 0.68497011E+03</pdfrwt>
<pdfrwt beam="2">  1       -2 0.19625214E-01 0.68497011E+03</pdfrwt>
<totfact> 0.72095168E+02</totfact>
</mgrwt>
<rwgt>
<wgt id='morphing_basis_vector_1'> +3.2954954e-04 </wgt>
<wgt id='morphing_basis_vector_2'> +4.0714142e-04 </wgt>
<wgt id='morphing_basis_vector_3'> +2.3189230e-04 </wgt>
<wgt id='morphing_basis_vector_4'> +1.4391534e-05 </wgt>
<wgt id='morphing_basis_vector_5'> +1.5478424e-04 </wgt>
</rwgt>
</event>
<event>
 4      1 +5.9529000e-06 6.28941300e+02 7.81860800e-03 9.15012500e-02
        2 -1    0    0  501    0 +0.0000000000e+00 +0.0000000000e+00 +1.8275581780e+02 1.8275581780e+02 0.0000000000e+00 0.0000e+00 1.0000e+00
       -2 -1    0    0    0  501 -0.0000000000e+00 -0.0000000000e+00 -5.4111433936e+02 5.4111433936e+02 0.0000000000e+00 0.0000e+00 -1.0000e+00
      -13  1    1    2    0    0 -1.8473188390e+02 -9.8578990769e+01 -4.4921531000e+02 4.9561888694e+02 0.0000000000e+00 0.0000e+00 -1.0000e+00
       13  1    1    2    0    0 +1.8473188390e+02 +9.8578990769e+01 +9.0856788446e+01 2.2825127022e+02 0.0000000000e+00 0.0000e+00 1.0000e+00
<mgrwt>
<rscale>  0 0.62894131E+03</rscale>
<asrwt>0</asrwt>
<pdfrwt beam="1">  1        2 0.28116279E-01 0.62894131E+03</pdfrwt>
<pdfrwt beam="2">  1       -2 0.83248360E-01 0.62894131E+03</pdfrwt>
<totfact> 0.30818331E+02</totfact>
</mgrwt>
<rwgt>
<wgt id='morphing_basis_vector_1'> +1.8315901e-04 </wgt>
<wgt id='morphing_basis_vector_2'> +1.0540573e-04 </wgt>
<wgt id='morphing_basis_vector_3'> +1.4856191e-04 </wgt>
<wgt id='morphing_basis_vector_4'> +6.7561056e-05 </wgt>
<wgt id='morphing_basis_vector_5'> +1.0315978e-04 </wgt>
</rwgt>
</event>
<event>
 4      1 +5.9529000e-06 7.12305700e+02 7.81860800e-03 9.02018500e-02
        2 -1    0    0  501    0 +0.0000000000e+00 +0.0000000000e+00 +1.9819920873e+02 1.9819920873e+02 0.0000000000e+00 0.0000e+00 -1.0000e+00
       -2 -1    0    0    0  501 -0.0000000000e+00 -0.0000000000e+00 -6.3998666725e+02 6.3998666725e+02 0.0000000000e+00 0.0000e+00 1.0000e+00
      -13  1    1    2    0    0 -2.2594581038e+02 -2.6914948142e+02 -2.8902074242e+02 4.5500103530e+02 0.0000000000e+00 0.0000e+00 1.0000e+00
       13  1    1    2    0    0 +2.2594581038e+02 +2.6914948142e+02 -1.5276671610e+02 3.8318484068e+02 0.0000000000e+00 0.0000e+00 -1.0000e+00
<mgrwt>
<rscale>  0 0.71230570E+03</rscale>
<asrwt>0</asrwt>
<pdfrwt beam="1">  1        2 0.30492186E-01 0.71230570E+03</pdfrwt>
<pdfrwt beam="2">  1       -2 0.98459489E-01 0.71230570E+03</pdfrwt>
<totfact> 0.18905365E+02</totfact>
</mgrwt>
<rwgt>
<wgt id='morphing_basis_vector_1'> +2.8388827e-04 </wgt>
<wgt id='morphing_basis_vector_2'> +1.8020567e-04 </wgt>
<wgt id='morphing_basis_vector_3'> +2.4119973e-04 </wgt>
<wgt id='morphing_basis_vector_4'> +1.1601925e-04 </wgt>
<wgt id='morphing_basis_vector_5'> +1.8877259e-04 </wgt>
</rwgt>
</event>
<event>
 4      1 +5.9529000e-06 6.31119600e+02 7.81860800e-03 9.14646700e-02
        2 -1    0    0  501    0 +0.0000000000e+00 +0.0000000000e+00 +5.4038463427e+01 5.4038463427e+01 0.0000000000e+00 0.0000e+00 -1.0000e+00
       -2 -1    0    0    0  501 -0.0000000000e+00 -0.0000000000e+00 -1.8427243780e+03 1.8427243780e+03 0.0000000000e+00 0.0000e+00 1.0000e+00
      -13  1    1    2    0    0 +2.4947840564e+02 -1.8571339063e+02 -1.0547604822e+03 1.0996584075e+03 0.0000000000e+00 0.0000e+00 1.0000e+00
       13  1    1    2    0    0 -2.4947840564e+02 +1.8571339063e+02 -7.3392543241e+02 7.9710443398e+02 0.0000000000e+00 0.0000e+00 -1.0000e+00
<mgrwt>
<rscale>  0 0.63111962E+03</rscale>
<asrwt>0</asrwt>
<pdfrwt beam="1">  1        2 0.83136107E-02 0.63111962E+03</pdfrwt>
<pdfrwt beam="2">  1       -2 0.28349603E+00 0.63111962E+03</pdfrwt>
<totfact> 0.34151592E+01</totfact>
</mgrwt>
<rwgt>
<wgt id='morphing_basis_vector_1'> +1.8848307e-04 </wgt>
<wgt id='morphing_basis_vector_2'> +1.1664938e-04 </wgt>
<wgt id='morphing_basis_vector_3'> +1.5094668e-04 </wgt>
<wgt id='morphing_basis_vector_4'> +6.5905325e-05 </wgt>
<wgt id='morphing_basis_vector_5'> +1.0493894e-04 </wgt>
</rwgt>
</event>
<event>
 4      1 +5.9529000e-06 6.50404000e+02 7.81860800e-03 9.11473900e-02
        2 -1    0    0  501    0 +0.0000000000e+00 +0.0000000000e+00 +3.4208709619e+02 3.4208709619e+02 0.0000000000e+00 0.0000e+00 1.0000e+00
       -2 -1    0    0    0  501 -0.0000000000e+00 -0.0000000000e+00 -3.0915030444e+02 3.0915030444e+02 0.0000000000e+00 0.0000e+00 -1.0000e+00
      -13  1    1    2    0    0 -2.8576097317e+02 +1.3742028513e+02 +8.8759675114e+01 3.2927488285e+02 0.0000000000e+00 0.0000e+00 1.0000e+00
       13  1    1    2    0    0 +2.8576097317e+02 -1.3742028513e+02 -5.5822883367e+01 3.2196251778e+02 0.0000000000e+00 0.0000e+00 -1.0000e+00
<mgrwt>
<rscale>  0 0.65040397E+03</rscale>
<asrwt>0</asrwt>
<pdfrwt beam="1">  1        2 0.52628784E-01 0.65040397E+03</pdfrwt>
<pdfrwt beam="2">  1       -2 0.47561585E-01 0.65040397E+03</pdfrwt>
<totfact> 0.48446093E+02</totfact>
</mgrwt>
<rwgt>
<wgt id='morphing_basis_vector_1'> +2.1988647e-04 </wgt>
<wgt id='morphing_basis_vector_2'> +1.6533897e-04 </wgt>
<wgt id='morphing_basis_vector_3'> +1.7174900e-04 </wgt>
<wgt id='morphing_basis_vector_4'> +6.5397149e-05 </wgt>
<wgt id='morphing_basis_vector_5'> +1.2165704e-04 </wgt>
</rwgt>
</event>
<event>
 4      1 +5.9529000e-06 6.43303500e+02 7.81860800e-03 9.12628500e-02
        2 -1    0    0  501    0 +0.0000000000e+00 +0.0000000000e+00 +9.0788253779e+02 9.0788253779e+02 0.0000000000e+00 0.0000e+00 -1.0000e+00
       -2 -1    0    0    0  501 -0.0000000000e+00 -0.0000000000e+00 -1.1395732115e+02 1.1395732115e+02 0.0000000000e+00 0.0000e+00 1.0000e+00
      -13  1    1    2    0    0 +2.8227388003e+02 +1.5317565655e+02 +4.2531219395e+02 5.3294632697e+02 0.0000000000e+00 0.0000e+00 1.0000e+00
       13  1    1    2    0    0 -2.8227388003e+02 -1.5317565655e+02 +3.6861302269e+02 4.8889353197e+02 0.0000000000e+00 0.0000e+00 -1.0000e+00
<mgrwt>
<rscale>  0 0.64330354E+03</rscale>
<asrwt>0</asrwt>
<pdfrwt beam="1">  1        2 0.13967423E+00 0.64330354E+03</pdfrwt>
<pdfrwt beam="2">  1       -2 0.17531896E-01 0.64330354E+03</pdfrwt>
<totfact> 0.88467805E+02</totfact>
</mgrwt>
<rwgt>
<wgt id='morphing_basis_vector_1'> +2.0553942e-04 </wgt>
<wgt id='morphing_basis_vector_2'> +1.3925287e-04 </wgt>
<wgt id='morphing_basis_vector_3'> +1.6327288e-04 </wgt>
<wgt id='morphing_basis_vector_4'> +6.7951280e-05 </wgt>
<wgt id='morphing_basis_vector_5'> +1.1533779e-04 </wgt>
</rwgt>
</event>
<event>
 4      1 +5.9529000e-06 6.36607900e+02 7.81860800e-03 9.13731700e-02
        2 -1    0    0  501    0 +0.0000000000e+00 +0.0000000000e+00 +1.6536247682e+03 1.6536247682e+03 0.0000000000e+00 0.0000e+00 -1.0000e+00
       -2 -1    0    0    0  501 -0.0000000000e+00 -0.0000000000e+00 -6.1269881321e+01 6.1269881321e+01 0.0000000000e+00 0.0000e+00 1.0000e+00
      -13  1    1    2    0    0 -1.2069648902e+01 -3.0209882271e+02 +1.0643157384e+03 1.1064254905e+03 0.0000000000e+00 0.0000e+00 1.0000e+00
       13  1    1    2    0    0 +1.2069648902e+01 +3.0209882271e+02 +5.2803914845e+02 6.0846915896e+02 0.0000000000e+00 0.0000e+00 -1.0000e+00
<mgrwt>
<rscale>  0 0.63660786E+03</rscale>
<asrwt>0</asrwt>
<pdfrwt beam="1">  1        2 0.25440378E+00 0.63660786E+03</pdfrwt>
<pdfrwt beam="2">  1       -2 0.94261368E-02 0.63660786E+03</pdfrwt>
<totfact> 0.88866770E+02</totfact>
</mgrwt>
<rwgt>
<wgt id='morphing_basis_vector_1'> +2.0958195e-04 </wgt>
<wgt id='morphing_basis_vector_2'> +1.6853877e-04 </wgt>
<wgt id='morphing_basis_vector_3'> +1.5840413e-04 </wgt>
<wgt id='morphing_basis_vector_4'> +5.4905240e-05 </wgt>
<wgt id='morphing_basis_vector_5'> +1.0944160e-04 </wgt>
</rwgt>
</event>
<event>
 4      1 +5.9529000e-06 6.72272400e+02 7.81860800e-03 9.08012600e-02
        2 -1    0    0  501    0 +0.0000000000e+00 +0.0000000000e+00 +4.6849240651e+02 4.6849240651e+02 0.0000000000e+00 0.0000e+00 1.0000e+00
       -2 -1    0    0    0  501 -0.0000000000e+00 -0.0000000000e+00 -2.4117259845e+02 2.4117259845e+02 0.0000000000e+00 0.0000e+00 -1.0000e+00
      -13  1    1    2    0    0 +1.3614607450e+01 +3.2856191538e+02 +4.0150139653e+01 3.3128586370e+02 0.0000000000e+00 0.0000e+00 -1.0000e+00
       13  1    1    2    0    0 -1.3614607450e+01 -3.2856191538e+02 +1.8716966840e+02 3.7837914126e+02 0.0000000000e+00 0.0000e+00 1.0000e+00
<mgrwt>
<rscale>  0 0.67227236E+03</rscale>
<asrwt>0</asrwt>
<pdfrwt beam="1">  1        2 0.72075755E-01 0.67227236E+03</pdfrwt>
<pdfrwt beam="2">  1       -2 0.37103477E-01 0.67227236E+03</pdfrwt>
<totfact> 0.54144590E+02</totfact>
</mgrwt>
<rwgt>
<wgt id='morphing_basis_vector_1'> +2.3232477e-04 </wgt>
<wgt id='morphing_basis_vector_2'> +1.4413817e-04 </wgt>
<wgt id='morphing_basis_vector_3'> +1.9243554e-04 </wgt>
<wgt id='morphing_basis_vector_4'> +8.9375823e-05 </wgt>
<wgt id='morphing_basis_vector_5'> +1.4312686e-04 </wgt>
</rwgt>
</event>
<event>
 4      1 +5.9529000e-06 6.57656000e+02 7.81860800e-03 9.10310500e-02
        2 -1    0    0  501    0 +0.0000000000e+00 +0.0000000000e+00 +5.8868792861e+02 5.8868792861e+02 0.0000000000e+00 0.0000e+00 1.0000e+00
       -2 -1    0    0    0  501 -0.0000000000e+00 -0.0000000000e+00 -1.8367603116e+02 1.8367603116e+02 0.0000000000e+00 0.0000e+00 -1.0000e+00
      -13  1    1    2    0    0 -3.0196796544e+02 +4.5516095847e+01 +5.9286989399e+01 3.1108088055e+02 0.0000000000e+00 0.0000e+00 -1.0000e+00
       13  1    1    2    0    0 +3.0196796544e+02 -4.5516095847e+01 +3.4572490805e+02 4.6128307922e+02 0.0000000000e+00 0.0000e+00 1.0000e+00
<mgrwt>
<rscale>  0 0.65765603E+03</rscale>
<asrwt>0</asrwt>
<pdfrwt beam="1">  1        2 0.90567373E-01 0.65765603E+03</pdfrwt>
<pdfrwt beam="2">  1       -2 0.28257851E-01 0.65765603E+03</pdfrwt>
<totfact> 0.67733299E+02</totfact>
</mgrwt>
<rwgt>
<wgt id='morphing_basis_vector_1'> +2.1405387e-04 </wgt>
<wgt id='morphing_basis_vector_2'> +1.2809512e-04 </wgt>
<wgt id='morphing_basis_vector_3'> +1.7640419e-04 </wgt>
<wgt id='morphing_basis_vector_4'> +8.2181836e-05 </wgt>
<wgt id='morphing_basis_vector_5'> +1.2862914e-04 </wgt>
</rwgt>
</event>
<event>
 4      1 +5.9529000e-06 6.22387600e+02 7.81860800e-03 9.16122700e-02
        2 -1    0    0  501    0 +0.0000000000e+00 +0.0000000000e+00 +1.8697618914e+02 1.8697618914e+02 0.0000000000e+00 0.0000e+00 -1.0000e+00
       -2 -1    0    0    0  501 -0.0000000000e+00 -0.0000000000e+00 -5.1793543611e+02 5.1793543611e+02 0.0000000000e+00 0.0000e+00 1.0000e+00
      -13  1    1    2    0    0 +1.6835185146e+02 -1.1405978445e+02 -4.3227577665e+02 4.7771783241e+02 0.0000000000e+00 0.0000e+00 1.0000e+00
       13  1    1    2    0    0 -1.6835185146e+02 +1.1405978445e+02 +1.0131652969e+02 2.2719379284e+02 0.0000000000e+00 0.0000e+00 -1.0000e+00
<mgrwt>
<rscale>  0 0.62238764E+03</rscale>
<asrwt>0</asrwt>
<pdfrwt beam="1">  1        2 0.28765568E-01 0.62238764E+03</pdfrwt>
<pdfrwt beam="2">  1       -2 0.79682374E-01 0.62238764E+03</pdfrwt>
<totfact> 0.33146222E+02</totfact>
</mgrwt>
<rwgt>
<wgt id='morphing_basis_vector_1'> +1.7691650e-04 </wgt>
<wgt id='morphing_basis_vector_2'> +1.0155721e-04 </wgt>
<wgt id='morphing_basis_vector_3'> +1.4278239e-04 </wgt>
<wgt id='morphing_basis_vector_4'> +6.4252469e-05 </wgt>
<wgt id='morphing_basis_vector_5'> +9.7882716e-05 </wgt>
</rwgt>
</event>
<event>
 4      1 +5.9529000e-06 7.15377100e+02 7.81860800e-03 9.01575700e-02
        2 -1    0    0  501    0 +0.0000000000e+00 +0.0000000000e+00 +1.3807098632e+03 1.3807098632e+03 0.0000000000e+00 0.0000e+00 1.0000e+00
       -2 -1    0    0    0  501 -0.0000000000e+00 -0.0000000000e+00 -9.2663273011e+01 9.2663273011e+01 0.0000000000e+00 0.0000e+00 -1.0000e+00
      -13  1    1    2    0    0 -4.9616940302e+01 -2.7981190833e+02 +1.9664219872e+02 3.4557878859e+02 0.0000000000e+00 0.0000e+00 -1.0000e+00
       13  1    1    2    0    0 +4.9616940302e+01 +2.7981190833e+02 +1.0914043915e+03 1.1277943477e+03 0.0000000000e+00 0.0000e+00 1.0000e+00
<mgrwt>
<rscale>  0 0.71537709E+03</rscale>
<asrwt>0</asrwt>
<pdfrwt beam="1">  1        2 0.21241689E+00 0.71537709E+03</pdfrwt>
<pdfrwt beam="2">  1       -2 0.14255889E-01 0.71537709E+03</pdfrwt>
<totfact> 0.64895714E+02</totfact>
</mgrwt>
<rwgt>
<wgt id='morphing_basis_vector_1'> +2.8341926e-04 </wgt>
<wgt id='morphing_basis_vector_2'> +1.6854905e-04 </wgt>
<wgt id='morphing_basis_vector_3'> +2.4343991e-04 </wgt>
<wgt id='morphing_basis_vector_4'> +1.2346204e-04 </wgt>
<wgt id='morphing_basis_vector_5'> +1.9280335e-04 </wgt>
</rwgt>
</event>
<event>
 4      1 +5.9529000e-06 6.79801600e+02 7.81860800e-03 9.06852600e-02
        2 -1    0    0  501    0 +0.0000000000e+00 +0.0000000000e+00 +2.5312493061e+03 2.5312493061e+03 0.0000000000e+00 0.0000e+00 1.0000e+00
       -2 -1    0    0    0  501 -0.0000000000e+00 -0.0000000000e+00 -4.5642505829e+01 4.5642505829e+01 0.0000000000e+00 0.0000e+00 -1.0000e+00
      -13  1    1    2    0    0 +2.9435747952e+02 -1.6828635254e+02 +1.1526257727e+03 1.2014627727e+03 0.0000000000e+00 0.0000e+00 -1.0000e+00
       13  1    1    2    0    0 -2.9435747952e+02 +1.6828635254e+02 +1.3329810276e+03 1.3754290393e+03 0.0000000000e+00 0.0000e+00 1.0000e+00
<mgrwt>
<rscale>  0 0.67980162E+03</rscale>
<asrwt>0</asrwt>
<pdfrwt beam="1">  1        2 0.38942286E+00 0.67980162E+03</pdfrwt>
<pdfrwt beam="2">  1       -2 0.70219259E-02 0.67980162E+03</pdfrwt>
<totfact> 0.45285480E+02</totfact>
</mgrwt>
<rwgt>
<wgt id='morphing_basis_vector_1'> +2.4387251e-04 </wgt>
<wgt id='morphing_basis_vector_2'> +1.5806382e-04 </wgt>
<wgt id='morphing_basis_vector_3'> +2.0166756e-04 </wgt>
<wgt id='morphing_basis_vector_4'> +9.1542634e-05 </wgt>
<wgt id='morphing_basis_vector_5'> +1.5098639e-04 </wgt>
</rwgt>
</event>
<event>
 4      1 +5.9529000e-06 6.21517000e+02 7.81860800e-03 9.16271300e-02
        2 -1    0    0  501    0 +0.0000000000e+00 +0.0000000000e+00 +3.4002951516e+02 3.4002951516e+02 0.0000000000e+00 0.0000e+00 1.0000e+00
       -2 -1    0    0    0  501 -0.0000000000e+00 -0.0000000000e+00 -2.8400726243e+02 2.8400726243e+02 0.0000000000e+00 0.0000e+00 -1.0000e+00
      -13  1    1    2    0    0 -2.7954691370e+02 -1.1874522051e+02 -3.8012193747e+01 3.0609121389e+02 0.0000000000e+00 0.0000e+00 -1.0000e+00
       13  1    1    2    0    0 +2.7954691370e+02 +1.1874522051e+02 +9.4034446474e+01 3.1794556370e+02 0.0000000000e+00 0.0000e+00 1.0000e+00
<mgrwt>
<rscale>  0 0.62151702E+03</rscale>
<asrwt>0</asrwt>
<pdfrwt beam="1">  1        2 0.52312233E-01 0.62151702E+03</pdfrwt>
<pdfrwt beam="2">  1       -2 0.43693425E-01 0.62151702E+03</pdfrwt>
<totfact> 0.57397357E+02</totfact>
</mgrwt>
<rwgt>
<wgt id='morphing_basis_vector_1'> +1.7867154e-04 </wgt>
<wgt id='morphing_basis_vector_2'> +1.0901880e-04 </wgt>
<wgt id='morphing_basis_vector_3'> +1.4228071e-04 </wgt>
<wgt id='morphing_basis_vector_4'> +6.1667620e-05 </wgt>
<wgt id='morphing_basis_vector_5'> +9.7190061e-05 </wgt>
</rwgt>
</event>
<event>
 4      1 +5.9529000e-06 6.38587500e+02 7.81860800e-03 9.13404100e-02
        2 -1    0    0  501    0 +0.0000000000e+00 +0.0000000000e+00 +1.4156284877e+03 1.4156284877e+03 0.0000000000e+00 0.0000e+00 -1.0000e+00
       -2 -1    0    0    0  501 -0.0000000000e+00 -0.0000000000e+00 -7.2016417803e+01 7.2016417803e+01 0.0000000000e+00 0.0000e+00 1.0000e+00
      -13  1    1    2    0    0 -5.2023019200e+01 -2.5208211160e+02 +2.3166388836e+02 3.4629458945e+02 0.0000000000e+00 0.0000e+00 1.0000e+00
       13  1    1    2    0    0 +5.2023019200e+01 +2.5208211160e+02 +1.1119481815e+03 1.1413503160e+03 0.0000000000e+00 0.0000e+00 -1.0000e+00
<mgrwt>
<rscale>  0 0.63858748E+03</rscale>
<asrwt>0</asrwt>
<pdfrwt beam="1">  1        2 0.21778898E+00 0.63858748E+03</pdfrwt>
<pdfrwt beam="2">  1       -2 0.11079450E-01 0.63858748E+03</pdfrwt>
<totfact> 0.93106606E+02</totfact>
</mgrwt>
<rwgt>
<wgt id='morphing_basis_vector_1'> +1.9296941e-04 </wgt>
<wgt id='morphing_basis_vector_2'> +1.1221832e-04 </wgt>
<wgt id='morphing_basis_vector_3'> +1.5744956e-04 </wgt>
<wgt id='morphing_basis_vector_4'> +7.2384613e-05 </wgt>
<wgt id='morphing_basis_vector_5'> +1.1128215e-04 </wgt>
</rwgt>
</event>
<event>
 4      1 +5.9529000e-06 7.23144500e+02 7.81860800e-03 9.00465800e-02
        2 -1    0    0  501    0 +0.0000000000e+00 +0.0000000000e+00 +1.1293089982e+03 1.1293089982e+03 0.0000000000e+00 0.0000e+00 -1.0000e+00
       -2 -1    0    0    0  501 -0.0000000000e+00 -0.0000000000e+00 -1.1576504498e+02 1.1576504498e+02 0.0000000000e+00 0.0000e+00 1.0000e+00
      -13  1    1    2    0    0 +2.4031264490e+02 +2.6666957756e+02 +4.3228413143e+02 5.6190070402e+02 0.0000000000e+00 0.0000e+00 1.0000e+00
       13  1    1    2    0    0 -2.4031264490e+02 -2.6666957756e+02 +5.8125982175e+02 6.8317333912e+02 0.0000000000e+00 0.0000e+00 -1.0000e+00
<mgrwt>
<rscale>  0 0.72314454E+03</rscale>
<asrwt>0</asrwt>
<pdfrwt beam="1">  1        2 0.17373984E+00 0.72314454E+03</pdfrwt>
<pdfrwt beam="2">  1       -2 0.17810008E-01 0.72314454E+03</pdfrwt>
<totfact> 0.62877239E+02</totfact>
</mgrwt>
<rwgt>
<wgt id='morphing_basis_vector_1'> +3.0006849e-04 </wgt>
<wgt id='morphing_basis_vector_2'> +1.9345890e-04 </wgt>
<wgt id='morphing_basis_vector_3'> +2.5625730e-04 </wgt>
<wgt id='morphing_basis_vector_4'> +1.2325912e-04 </wgt>
<wgt id='morphing_basis_vector_5'> +2.0268908e-04 </wgt>
</rwgt>
</event>
<event>
 4      1 +5.9529000e-06 7.14848900e+02 7.81860800e-03 9.01651700e-02
        2 -1    0    0  501    0 +0.0000000000e+00 +0.0000000000e+00 +1.1085252499e+03 1.1085252499e+03 0.0000000000e+00 0.0000e+00 1.0000e+00
       -2 -1    0    0    0  501 -0.0000000000e+00 -0.0000000000e+00 -1.1524522456e+02 1.1524522456e+02 0.0000000000e+00 0.0000e+00 -1.0000e+00
      -13  1    1    2    0    0 -1.8730325867e+02 +1.5618838027e+02 +4.9322076332e+01 2.4881717797e+02 0.0000000000e+00 0.0000e+00 -1.0000e+00
       13  1    1    2    0    0 +1.8730325867e+02 -1.5618838027e+02 +9.4395794898e+02 9.7495329646e+02 0.0000000000e+00 0.0000e+00 1.0000e+00
<mgrwt>
<rscale>  0 0.71484891E+03</rscale>
<asrwt>0</asrwt>
<pdfrwt beam="1">  1        2 0.17054234E+00 0.71484891E+03</pdfrwt>
<pdfrwt beam="2">  1       -2 0.17730035E-01 0.71484891E+03</pdfrwt>
<totfact> 0.65183310E+02</totfact>
</mgrwt>
<rwgt>
<wgt id='morphing_basis_vector_1'> +2.8231660e-04 </wgt>
<wgt id='morphing_basis_vector_2'> +1.6691764e-04 </wgt>
<wgt id='morphing_basis_vector_3'> +2.4259643e-04 </wgt>
<wgt id='morphing_basis_vector_4'> +1.2345689e-04 </wgt>
<wgt id='morphing_basis_vector_5'> +1.9214285e-04 </wgt>
</rwgt>
</event>
<event>
 4      1 +5.9529000e-06 6.20240200e+02 7.81860800e-03 9.16489600e-02
        2 -1    0    0  501    0 +0.0000000000e+00 +0.0000000000e+00 +6.4211536422e+02 6.4211536422e+02 0.0000000000e+00 0.0000e+00 -1.0000e+00
       -2 -1    0    0    0  501 -0.0000000000e+00 -0.0000000000e+00 -1.4977758427e+02 1.4977758427e+02 0.0000000000e+00 0.0000e+00 1.0000e+00
      -13  1    1    2    0    0 -2.2471516586e+02 -5.9534186842e+01 -1.5902181959e+01 2.3301095374e+02 0.0000000000e+00 0.0000e+00 1.0000e+00
       13  1    1    2    0    0 +2.2471516586e+02 +5.9534186842e+01 +5.0823996191e+02 5.5888199475e+02 0.0000000000e+00 0.0000e+00 -1.0000e+00
<mgrwt>
<rscale>  0 0.62024024E+03</rscale>
<asrwt>0</asrwt>
<pdfrwt beam="1">  1        2 0.98786978E-01 0.62024024E+03</pdfrwt>
<pdfrwt beam="2">  1       -2 0.23042706E-01 0.62024024E+03</pdfrwt>
<totfact> 0.86820234E+02</totfact>
</mgrwt>
<rwgt>
<wgt id='morphing_basis_vector_1'> +1.7505908e-04 </wgt>
<wgt id='morphing_basis_vector_2'> +1.0078724e-04 </wgt>
<wgt id='morphing_basis_vector_3'> +1.4094182e-04 </wgt>
<wgt id='morphing_basis_vector_4'> +6.3068909e-05 </wgt>
<wgt id='morphing_basis_vector_5'> +9.6195196e-05 </wgt>
</rwgt>
</event>
<event>
 4      1 +5.9529000e-06 6.66674700e+02 7.81860800e-03 9.08885400e-02
        2 -1    0    0  501    0 +0.0000000000e+00 +0.0000000000e+00 +1.2789207518e+02 1.2789207518e+02 0.0000000000e+00 0.0000e+00 1.0000e+00
       -2 -1    0    0    0  501 -0.0000000000e+00 -0.0000000000e+00 -8.6880907120e+02 8.6880907120e+02 0.0000000000e+00 0.0000e+00 -1.0000e+00
      -13  1    1    2    0    0 -1.5303639647e+02 -2.5848302255e+02 -5.8649051811e+02 6.5894213663e+02 0.0000000000e+00 0.0000e+00 -1.0000e+00
       13  1    1    2    0    0 +1.5303639647e+02 +2.5848302255e+02 -1.5442647791e+02 3.3775900975e+02 0.0000000000e+00 0.0000e+00 1.0000e+00
<mgrwt>
<rscale>  0 0.66667472E+03</rscale>
<asrwt>0</asrwt>
<pdfrwt beam="1">  1        2 0.19675704E-01 0.66667472E+03</pdfrwt>
<pdfrwt beam="2">  1       -2 0.13366293E+00 0.66667472E+03</pdfrwt>
<totfact> 0.14585684E+02</totfact>
</mgrwt>
<rwgt>
<wgt id='morphing_basis_vector_1'> +2.2365438e-04 </wgt>
<wgt id='morphing_basis_vector_2'> +1.3310437e-04 </wgt>
<wgt id='morphing_basis_vector_3'> +1.8576778e-04 </wgt>
<wgt id='morphing_basis_vector_4'> +8.8063374e-05 </wgt>
<wgt id='morphing_basis_vector_5'> +1.3747343e-04 </wgt>
</rwgt>
</event>
<event>
 4      1 +5.9529000e-06 6.20484100e+02 7.81860800e-03 9.16447900e-02
        2 -1    0    0  501    0 +0.0000000000e+00 +0.0000000000e+00 +3.9777036736e+02 3.9777036736e+02 0.0000000000e+00 0.0000e+00 -1.0000e+00
       -2 -1    0    0    0  501 -0.0000000000e+00 -0.0000000000e+00 -2.4197409778e+02 2.4197409778e+02 0.0000000000e+00 0.0000e+00 1.0000e+00
      -13  1    1    2    0    0 -8.0707374528e+01 +1.4675751491e+02 -1.9135691958e+02 2.5430084380e+02 0.0000000000e+00 0.0000e+00 1.0000e+00
       13  1    1    2    0    0 +8.0707374528e+01 -1.4675751491e+02 +3.4715318916e+02 3.8544362134e+02 0.0000000000e+00 0.0000e+00 -1.0000e+00
<mgrwt>
<rscale>  0 0.62048409E+03</rscale>
<asrwt>0</asrwt>
<pdfrwt beam="1">  1        2 0.61195441E-01 0.62048409E+03</pdfrwt>
<pdfrwt beam="2">  1       -2 0.37226784E-01 0.62048409E+03</pdfrwt>
<totfact> 0.64800718E+02</totfact>
</mgrwt>
<rwgt>
<wgt id='morphing_basis_vector_1'> +1.7506212e-04 </wgt>
<wgt id='morphing_basis_vector_2'> +1.0023299e-04 </wgt>
<wgt id='morphing_basis_vector_3'> +1.4113042e-04 </wgt>
<wgt id='morphing_basis_vector_4'> +6.3375320e-05 </wgt>
<wgt id='morphing_basis_vector_5'> +9.6386204e-05 </wgt>
</rwgt>
</event>
<event>
 4      1 +5.9529000e-06 6.41496500e+02 7.81860800e-03 9.12924900e-02
        2 -1    0    0  501    0 +0.0000000000e+00 +0.0000000000e+00 +1.2007701693e+03 1.2007701693e+03 0.0000000000e+00 0.0000e+00 -1.0000e+00
       -2 -1    0    0    0  501 -0.0000000000e+00 -0.0000000000e+00 -8.5677889690e+01 8.5677889690e+01 0.0000000000e+00 0.0000e+00 1.0000e+00
      -13  1    1    2    0    0 -8.7539012961e+01 -1.8445711196e+02 +6.1473724379e+01 2.1322880605e+02 0.0000000000e+00 0.0000e+00 1.0000e+00
       13  1    1    2    0    0 +8.7539012961e+01 +1.8445711196e+02 +1.0536185552e+03 1.0732192529e+03 0.0000000000e+00 0.0000e+00 -1.0000e+00
<mgrwt>
<rscale>  0 0.64149654E+03</rscale>
<asrwt>0</asrwt>
<pdfrwt beam="1">  1        2 0.18473386E+00 0.64149654E+03</pdfrwt>
<pdfrwt beam="2">  1       -2 0.13181215E-01 0.64149654E+03</pdfrwt>
<totfact> 0.93346111E+02</totfact>
</mgrwt>
<rwgt>
<wgt id='morphing_basis_vector_1'> +1.9555045e-04 </wgt>
<wgt id='morphing_basis_vector_2'> +1.1291953e-04 </wgt>
<wgt id='morphing_basis_vector_3'> +1.6013730e-04 </wgt>
<wgt id='morphing_basis_vector_4'> +7.4296002e-05 </wgt>
<wgt id='morphing_basis_vector_5'> +1.1382081e-04 </wgt>
</rwgt>
</event>
<event>
 4      1 +5.9529000e-06 6.61963100e+02 7.81860800e-03 9.09626900e-02
        2 -1    0    0  501    0 +0.0000000000e+00 +0.0000000000e+00 +1.3544206414e+02 1.3544206414e+02 0.0000000000e+00 0.0000e+00 1.0000e+00
       -2 -1    0    0    0  501 -0.0000000000e+00 -0.0000000000e+00 -8.0882401834e+02 8.0882401834e+02 0.0000000000e+00 0.0000e+00 -1.0000e+00
      -13  1    1    2    0    0 -3.2330171476e+02 -2.6455464112e+00 -4.3773651313e+02 5.4419137498e+02 0.0000000000e+00 0.0000e+00 -1.0000e+00
       13  1    1    2    0    0 +3.2330171476e+02 +2.6455464112e+00 -2.3564544107e+02 4.0007470749e+02 0.0000000000e+00 0.0000e+00 1.0000e+00
<mgrwt>
<rscale>  0 0.66196312E+03</rscale>
<asrwt>0</asrwt>
<pdfrwt beam="1">  1        2 0.20837241E-01 0.66196312E+03</pdfrwt>
<pdfrwt beam="2">  1       -2 0.12443446E+00 0.66196312E+03</pdfrwt>
<totfact> 0.16467762E+02</totfact>
</mgrwt>
<rwgt>
<wgt id='morphing_basis_vector_1'> +2.2042254e-04 </wgt>
<wgt id='morphing_basis_vector_2'> +1.3610943e-04 </wgt>
<wgt id='morphing_basis_vector_3'> +1.8125952e-04 </wgt>
<wgt id='morphing_basis_vector_4'> +8.3211214e-05 </wgt>
<wgt id='morphing_basis_vector_5'> +1.3277243e-04 </wgt>
</rwgt>
</event>
<event>
 4      1 +5.9529000e-06 7.09468500e+02 7.81860800e-03 9.02429700e-02
        2 -1    0    0  501    0 +0.0000000000e+00 +0.0000000000e+00 +2.0511308684e+03 2.0511308684e+03 0.0000000000e+00 0.0000e+00 1.0000e+00
       -2 -1    0    0    0  501 -0.0000000000e+00 -0.0000000000e+00 -6.1349763376e+01 6.1349763376e+01 0.0000000000e+00 0.0000e+00 -1.0000e+00
      -13  1    1    2    0    0 -3.2190639136e+02 -1.1106356336e+02 +6.9896374786e+02 7.7750187185e+02 0.0000000000e+00 0.0000e+00 -1.0000e+00
       13  1    1    2    0    0 +3.2190639136e+02 +1.1106356336e+02 +1.2908173572e+03 1.3349787600e+03 0.0000000000e+00 0.0000e+00 1.0000e+00
<mgrwt>
<rscale>  0 0.70946851E+03</rscale>
<asrwt>0</asrwt>
<pdfrwt beam="1">  1        2 0.31555854E+00 0.70946851E+03</pdfrwt>
<pdfrwt beam="2">  1       -2 0.94384267E-02 0.70946851E+03</pdfrwt>
<totfact> 0.53465830E+02</totfact>
</mgrwt>
<rwgt>
<wgt id='morphing_basis_vector_1'> +2.7805201e-04 </wgt>
<wgt id='morphing_basis_vector_2'> +1.7156088e-04 </wgt>
<wgt id='morphing_basis_vector_3'> +2.3673769e-04 </wgt>
<wgt id='morphing_basis_vector_4'> +1.1601431e-04 </wgt>
<wgt id='morphing_basis_vector_5'> +1.8529589e-04 </wgt>
</rwgt>
</event>
<event>
 4      1 +5.9529000e-06 6.97390900e+02 7.81860800e-03 9.04202700e-02
        2 -1    0    0  501    0 +0.0000000000e+00 +0.0000000000e+00 +6.0535608240e+02 6.0535608240e+02 0.0000000000e+00 0.0000e+00 -1.0000e+00
       -2 -1    0    0    0  501 -0.0000000000e+00 -0.0000000000e+00 -2.0085456556e+02 2.0085456556e+02 0.0000000000e+00 0.0000e+00 1.0000e+00
      -13  1    1    2    0    0 +3.0021614097e+02 -7.9886156363e+01 +1.9183766023e+01 3.1125479298e+02 0.0000000000e+00 0.0000e+00 1.0000e+00
       13  1    1    2    0    0 -3.0021614097e+02 +7.9886156363e+01 +3.8531775082e+02 4.9495585498e+02 0.0000000000e+00 0.0000e+00 -1.0000e+00
<mgrwt>
<rscale>  0 0.69739095E+03</rscale>
<asrwt>0</asrwt>
<pdfrwt beam="1">  1        2 0.93131704E-01 0.69739095E+03</pdfrwt>
<pdfrwt beam="2">  1       -2 0.30900703E-01 0.69739095E+03</pdfrwt>
<totfact> 0.55958815E+02</totfact>
</mgrwt>
<rwgt>
<wgt id='morphing_basis_vector_1'> +2.6049110e-04 </wgt>
<wgt id='morphing_basis_vector_2'> +1.5608518e-04 </wgt>
<wgt id='morphing_basis_vector_3'> +2.2091402e-04 </wgt>
<wgt id='morphing_basis_vector_4'> +1.0888110e-04 </wgt>
<wgt id='morphing_basis_vector_5'> +1.7080355e-04 </wgt>
</rwgt>
</event>
<event>
 4      1 +5.9529000e-06 6.46805800e+02 7.81860800e-03 9.12057100e-02
        2 -1    0    0  501    0 +0.0000000000e+00 +0.0000000000e+00 +1.0011281165e+03 1.0011281165e+03 0.0000000000e+00 0.0000e+00 -1.0000e+00
       -2 -1    0    0    0  501 -0.0000000000e+00 -0.0000000000e+00 -1.0447159280e+02 1.0447159280e+02 0.0000000000e+00 0.0000e+00 1.0000e+00
      -13  1    1    2    0    0 -1.6513765098e+02 +2.5697581458e+02 +6.2989045492e+02 7.0004928273e+02 0.0000000000e+00 0.0000e+00 1.0000e+00
       13  1    1    2    0    0 +1.6513765098e+02 -2.5697581458e+02 +2.6676606881e+02 4.0555042661e+02 0.0000000000e+00 0.0000e+00 -1.0000e+00
<mgrwt>
<rscale>  0 0.64680584E+03</rscale>
<asrwt>0</asrwt>
<pdfrwt beam="1">  1        2 0.15401970E+00 0.64680584E+03</pdfrwt>
<pdfrwt beam="2">  1       -2 0.16072553E-01 0.64680584E+03</pdfrwt>
<totfact> 0.89060452E+02</totfact>
</mgrwt>
<rwgt>
<wgt id='morphing_basis_vector_1'> +2.2205038e-04 </wgt>
<wgt id='morphing_basis_vector_2'> +1.8136693e-04 </wgt>
<wgt id='morphing_basis_vector_3'> +1.6913592e-04 </wgt>
<wgt id='morphing_basis_vector_4'> +5.8078548e-05 </wgt>
<wgt id='morphing_basis_vector_5'> +1.1832638e-04 </wgt>
</rwgt>
</event>
<event>
 4      1 +5.9529000e-06 6.46232100e+02 7.81860800e-03 9.12150400e-02
        2 -1    0    0  501    0 +0.0000000000e+00 +0.0000000000e+00 +7.5374532895e+02 7.5374532895e+02 0.0000000000e+00 0.0000e+00 -1.0000e+00
       -2 -1    0    0    0  501 -0.0000000000e+00 -0.0000000000e+00 -1.3851358971e+02 1.3851358971e+02 0.0000000000e+00 0.0000e+00 1.0000e+00
      -13  1    1    2    0    0 +2.0430102428e+02 -6.7336728956e+01 -2.5277883874e+01 2.1659204741e+02 0.0000000000e+00 0.0000e+00 1.0000e+00
       13  1    1    2    0    0 -2.0430102428e+02 +6.7336728956e+01 +6.4050962312e+02 6.7566687124e+02 0.0000000000e+00 0.0000e+00 -1.0000e+00
<mgrwt>
<rscale>  0 0.64623207E+03</rscale>
<asrwt>0</asrwt>
<pdfrwt beam="1">  1        2 0.11596082E+00 0.64623207E+03</pdfrwt>
<pdfrwt beam="2">  1       -2 0.21309783E-01 0.64623207E+03</pdfrwt>
<totfact> 0.81430711E+02</totfact>
</mgrwt>
<rwgt>
<wgt id='morphing_basis_vector_1'> +2.0044102e-04 </wgt>
<wgt id='morphing_basis_vector_2'> +1.1600643e-04 </wgt>
<wgt id='morphing_basis_vector_3'> +1.6468975e-04 </wgt>
<wgt id='morphing_basis_vector_4'> +7.6916706e-05 </wgt>
<wgt id='morphing_basis_vector_5'> +1.1803466e-04 </wgt>
</rwgt>
</event>
<event>
 4      1 +5.9529000e-06 7.31076800e+02 7.81860800e-03 8.99347500e-02
        2 -1    0    0  501    0 +0.0000000000e+00 +0.0000000000e+00 +8.5286702968e+02 8.5286702968e+02 0.0000000000e+00 0.0000e+00 -1.0000e+00
       -2 -1    0    0    0  501 -0.0000000000e+00 -0.0000000000e+00 -1.5666956836e+02 1.5666956836e+02 0.0000000000e+00 0.0000e+00 1.0000e+00
      -13  1    1    2    0    0 -2.4754968093e+02 -2.4323732843e+02 +5.0658897505e+02 6.1406647207e+02 0.0000000000e+00 0.0000e+00 1.0000e+00
       13  1    1    2    0    0 +2.4754968093e+02 +2.4323732843e+02 +1.8960848627e+02 3.9547012598e+02 0.0000000000e+00 0.0000e+00 -1.0000e+00
<mgrwt>
<rscale>  0 0.73107677E+03</rscale>
<asrwt>0</asrwt>
<pdfrwt beam="1">  1        2 0.13121031E+00 0.73107677E+03</pdfrwt>
<pdfrwt beam="2">  1       -2 0.24103011E-01 0.73107677E+03</pdfrwt>
<totfact> 0.56329801E+02</totfact>
</mgrwt>
<rwgt>
<wgt id='morphing_basis_vector_1'> +3.3585019e-04 </wgt>
<wgt id='morphing_basis_vector_2'> +2.7584951e-04 </wgt>
<wgt id='morphing_basis_vector_3'> +2.7793867e-04 </wgt>
<wgt id='morphing_basis_vector_4'> +1.0235191e-04 </wgt>
<wgt id='morphing_basis_vector_5'> +2.1247347e-04 </wgt>
</rwgt>
</event>
<event>
 4      1 +5.9529000e-06 7.36509100e+02 7.81860800e-03 8.98590300e-02
        2 -1    0    0  501    0 +0.0000000000e+00 +0.0000000000e+00 +7.1747298460e+02 7.1747298460e+02 0.0000000000e+00 0.0000e+00 -1.0000e+00
       -2 -1    0    0    0  501 -0.0000000000e+00 -0.0000000000e+00 -1.8901258333e+02 1.8901258333e+02 0.0000000000e+00 0.0000e+00 1.0000e+00
      -13  1    1    2    0    0 -3.0622931318e+02 +1.2788315551e+02 +6.7762850204e+01 3.3870680180e+02 0.0000000000e+00 0.0000e+00 1.0000e+00
       13  1    1    2    0    0 +3.0622931318e+02 -1.2788315551e+02 +4.6069755106e+02 5.6777876613e+02 0.0000000000e+00 0.0000e+00 -1.0000e+00
<mgrwt>
<rscale>  0 0.73650912E+03</rscale>
<asrwt>0</asrwt>
<pdfrwt beam="1">  1        2 0.11038046E+00 0.73650912E+03</pdfrwt>
<pdfrwt beam="2">  1       -2 0.29078859E-01 0.73650912E+03</pdfrwt>
<totfact> 0.50711613E+02</totfact>
</mgrwt>
<rwgt>
<wgt id='morphing_basis_vector_1'> +3.1457861e-04 </wgt>
<wgt id='morphing_basis_vector_2'> +1.9099343e-04 </wgt>
<wgt id='morphing_basis_vector_3'> +2.7300652e-04 </wgt>
<wgt id='morphing_basis_vector_4'> +1.3988112e-04 </wgt>
<wgt id='morphing_basis_vector_5'> +2.2107043e-04 </wgt>
</rwgt>
</event>
<event>
 4      1 +5.9529000e-06 7.12748700e+02 7.81860800e-03 9.01954500e-02
        2 -1    0    0  501    0 +0.0000000000e+00 +0.0000000000e+00 +2.5674047572e+03 2.5674047572e+03 0.0000000000e+00 0.0000e+00 -1.0000e+00
       -2 -1    0    0    0  501 -0.0000000000e+00 -0.0000000000e+00 -4.9467337404e+01 4.9467337404e+01 0.0000000000e+00 0.0000e+00 1.0000e+00
      -13  1    1    2    0    0 +2.2230871152e+02 +2.7814642635e+02 +1.2049986359e+03 1.2565063908e+03 0.0000000000e+00 0.0000e+00 1.0000e+00
       13  1    1    2    0    0 -2.2230871152e+02 -2.7814642635e+02 +1.3129387839e+03 1.3603657038e+03 0.0000000000e+00 0.0000e+00 -1.0000e+00
<mgrwt>
<rscale>  0 0.71274870E+03</rscale>
<asrwt>0</asrwt>
<pdfrwt beam="1">  1        2 0.39498524E+00 0.71274870E+03</pdfrwt>
<pdfrwt beam="2">  1       -2 0.76103616E-02 0.71274870E+03</pdfrwt>
<totfact> 0.37968055E+02</totfact>
</mgrwt>
<rwgt>
<wgt id='morphing_basis_vector_1'> +2.8756987e-04 </wgt>
<wgt id='morphing_basis_vector_2'> +1.9007847e-04 </wgt>
<wgt id='morphing_basis_vector_3'> +2.4296626e-04 </wgt>
<wgt id='morphing_basis_vector_4'> +1.1302770e-04 </wgt>
<wgt id='morphing_basis_vector_5'> +1.8923377e-04 </wgt>
</rwgt>
</event>
<event>
 4      1 +5.9529000e-06 6.53157400e+02 7.81860800e-03 9.11030300e-02
        2 -1    0    0  501    0 +0.0000000000e+00 +0.0000000000e+00 +1.9054367061e+02 1.9054367061e+02 0.0000000000e+00 0.0000e+00 -1.0000e+00
       -2 -1    0    0    0  501 -0.0000000000e+00 -0.0000000000e+00 -5.5973343593e+02 5.5973343593e+02 0.0000000000e+00 0.0000e+00 1.0000e+00
      -13  1    1    2    0    0 -1.3964133409e+02 +1.1893865230e+02 -4.9497058992e+02 5.2786550379e+02 0.0000000000e+00 0.0000e+00 1.0000e+00
       13  1    1    2    0    0 +1.3964133409e+02 -1.1893865230e+02 +1.2578082461e+02 2.2241160275e+02 0.0000000000e+00 0.0000e+00 -1.0000e+00
<mgrwt>
<rscale>  0 0.65315745E+03</rscale>
<asrwt>0</asrwt>
<pdfrwt beam="1">  1        2 0.29314411E-01 0.65315745E+03</pdfrwt>
<pdfrwt beam="2">  1       -2 0.86112835E-01 0.65315745E+03</pdfrwt>
<totfact> 0.27148591E+02</totfact>
</mgrwt>
<rwgt>
<wgt id='morphing_basis_vector_1'> +2.0762221e-04 </wgt>
<wgt id='morphing_basis_vector_2'> +1.2018909e-04 </wgt>
<wgt id='morphing_basis_vector_3'> +1.7150051e-04 </wgt>
<wgt id='morphing_basis_vector_4'> +8.1004369e-05 </wgt>
<wgt id='morphing_basis_vector_5'> +1.2439452e-04 </wgt>
</rwgt>
</event>
<event>
 4      1 +5.9529000e-06 6.78991800e+02 7.81860800e-03 9.06976600e-02
        2 -1    0    0  501    0 +0.0000000000e+00 +0.0000000000e+00 +7.0017124911e+01 7.0017124911e+01 0.0000000000e+00 0.0000e+00 -1.0000e+00
       -2 -1    0    0    0  501 -0.0000000000e+00 -0.0000000000e+00 -1.6461326652e+03 1.6461326652e+03 0.0000000000e+00 0.0000e+00 1.0000e+00
      -13  1    1    2    0    0 +2.0506008100e+02 +2.5862755813e+02 -9.8898385608e+02 1.0426058307e+03 0.0000000000e+00 0.0000e+00 1.0000e+00
       13  1    1    2    0    0 -2.0506008100e+02 -2.5862755813e+02 -5.8713168422e+02 6.7354395941e+02 0.0000000000e+00 0.0000e+00 -1.0000e+00
<mgrwt>
<rscale>  0 0.67899183E+03</rscale>
<asrwt>0</asrwt>
<pdfrwt beam="1">  1        2 0.10771865E-01 0.67899183E+03</pdfrwt>
<pdfrwt beam="2">  1       -2 0.25325118E+00 0.67899183E+03</pdfrwt>
<totfact> 0.39063395E+01</totfact>
</mgrwt>
<rwgt>
<wgt id='morphing_basis_vector_1'> +2.3990442e-04 </wgt>
<wgt id='morphing_basis_vector_2'> +1.4818273e-04 </wgt>
<wgt id='morphing_basis_vector_3'> +1.9987684e-04 </wgt>
<wgt id='morphing_basis_vector_4'> +9.4015696e-05 </wgt>
<wgt id='morphing_basis_vector_5'> +1.5018397e-04 </wgt>
</rwgt>
</event>
<event>
 4      1 +5.9529000e-06 6.32187600e+02 7.81860800e-03 9.14467900e-02
        2 -1    0    0  501    0 +0.0000000000e+00 +0.0000000000e+00 +7.6898025376e+02 7.6898025376e+02 0.0000000000e+00 0.0000e+00 -1.0000e+00
       -2 -1    0    0    0  501 -0.0000000000e+00 -0.0000000000e+00 -1.2993218939e+02 1.2993218939e+02 0.0000000000e+00 0.0000e+00 1.0000e+00
      -13  1    1    2    0    0 -5.5298744873e+01 +2.6297278425e+02 +8.2860090299e+01 2.8120887433e+02 0.0000000000e+00 0.0000e+00 1.0000e+00
       13  1    1    2    0    0 +5.5298744873e+01 -2.6297278425e+02 +5.5618797406e+02 6.1770356882e+02 0.0000000000e+00 0.0000e+00 -1.0000e+00
<mgrwt>
<rscale>  0 0.63218759E+03</rscale>
<asrwt>0</asrwt>
<pdfrwt beam="1">  1        2 0.11830465E+00 0.63218759E+03</pdfrwt>
<pdfrwt beam="2">  1       -2 0.19989568E-01 0.63218759E+03</pdfrwt>
<totfact> 0.88390933E+02</totfact>
</mgrwt>
<rwgt>
<wgt id='morphing_basis_vector_1'> +1.8683181e-04 </wgt>
<wgt id='morphing_basis_vector_2'> +1.0895213e-04 </wgt>
<wgt id='morphing_basis_vector_3'> +1.5156209e-04 </wgt>
<wgt id='morphing_basis_vector_4'> +6.8796115e-05 </wgt>
<wgt id='morphing_basis_vector_5'> +1.0584292e-04 </wgt>
</rwgt>
</event>
<event>
 4      1 +5.9529000e-06 6.85233900e+02 7.81860800e-03 9.06025400e-02
        2 -1    0    0  501    0 +0.0000000000e+00 +0.0000000000e+00 +7.6168550693e+02 7.6168550693e+02 0.0000000000e+00 0.0000e+00 -1.0000e+00
       -2 -1    0    0    0  501 -0.0000000000e+00 -0.0000000000e+00 -1.5411397451e+02 1.5411397451e+02 0.0000000000e+00 0.0000e+00 1.0000e+00
      -13  1    1    2    0    0 +2.6937109298e+02 -1.5644974428e+02 +1.1313706475e+02 3.3141711428e+02 0.0000000000e+00 0.0000e+00 1.0000e+00
       13  1    1    2    0    0 -2.6937109298e+02 +1.5644974428e+02 +4.9443446768e+02 5.8438236716e+02 0.0000000000e+00 0.0000e+00 -1.0000e+00
<mgrwt>
<rscale>  0 0.68523392E+03</rscale>
<asrwt>0</asrwt>
<pdfrwt beam="1">  1        2 0.11718238E+00 0.68523392E+03</pdfrwt>
<pdfrwt beam="2">  1       -2 0.23709843E-01 0.68523392E+03</pdfrwt>
<totfact> 0.67072309E+02</totfact>
</mgrwt>
<rwgt>
<wgt id='morphing_basis_vector_1'> +2.4558470e-04 </wgt>
<wgt id='morphing_basis_vector_2'> +1.4728092e-04 </wgt>
<wgt id='morphing_basis_vector_3'> +2.0650430e-04 </wgt>
<wgt id='morphing_basis_vector_4'> +1.0004486e-04 </wgt>
<wgt id='morphing_basis_vector_5'> +1.5699339e-04 </wgt>
</rwgt>
</event>
<event>
 4      1 +5.9529000e-06 6.68677800e+02 7.81860800e-03 9.08572000e-02
        2 -1    0    0  501    0 +0.0000000000e+00 +0.0000000000e+00 +1.0654892635e+03 1.0654892635e+03 0.0000000000e+00 0.0000e+00 1.0000e+00
       -2 -1    0    0    0  501 -0.0000000000e+00 -0.0000000000e+00 -1.0491189957e+02 1.0491189957e+02 0.0000000000e+00 0.0000e+00 -1.0000e+00
      -13  1    1    2    0    0 +1.1092755254e+02 -1.6774627260e+02 +1.2789732313e+01 2.0151255825e+02 0.0000000000e+00 0.0000e+00 -1.0000e+00
       13  1    1    2    0    0 -1.1092755254e+02 +1.6774627260e+02 +9.4778763166e+02 9.6888860485e+02 0.0000000000e+00 0.0000e+00 1.0000e+00
<mgrwt>
<rscale>  0 0.66867781E+03</rscale>
<asrwt>0</asrwt>
<pdfrwt beam="1">  1        2 0.16392142E+00 0.66867781E+03</pdfrwt>
<pdfrwt beam="2">  1       -2 0.16140293E-01 0.66867781E+03</pdfrwt>
<totfact> 0.80779283E+02</totfact>
</mgrwt>
<rwgt>
<wgt id='morphing_basis_vector_1'> +2.2472052e-04 </wgt>
<wgt id='morphing_basis_vector_2'> +1.3080308e-04 </wgt>
<wgt id='morphing_basis_vector_3'> +1.8761175e-04 </wgt>
<wgt id='morphing_basis_vector_4'> +9.0492241e-05 </wgt>
<wgt id='morphing_basis_vector_5'> +1.3951449e-04 </wgt>
</rwgt>
</event>
<event>
 4      1 +5.9529000e-06 7.41025600e+02 7.81860800e-03 8.97966100e-02
        2 -1    0    0  501    0 +0.0000000000e+00 +0.0000000000e+00 +4.4679137052e+02 4.4679137052e+02 0.0000000000e+00 0.0000e+00 1.0000e+00
       -2 -1    0    0    0  501 -0.0000000000e+00 -0.0000000000e+00 -3.0725691371e+02 3.0725691371e+02 0.0000000000e+00 0.0000e+00 -1.0000e+00
      -13  1    1    2    0    0 +7.1227874743e+01 -1.6100816633e+02 -2.6197230168e+02 3.1563670036e+02 0.0000000000e+00 0.0000e+00 -1.0000e+00
       13  1    1    2    0    0 -7.1227874743e+01 +1.6100816633e+02 +4.0150675849e+02 4.3841158388e+02 0.0000000000e+00 0.0000e+00 1.0000e+00
<mgrwt>
<rscale>  0 0.74102561E+03</rscale>
<asrwt>0</asrwt>
<pdfrwt beam="1">  1        2 0.68737134E-01 0.74102561E+03</pdfrwt>
<pdfrwt beam="2">  1       -2 0.47270295E-01 0.74102561E+03</pdfrwt>
<totfact> 0.36170571E+02</totfact>
</mgrwt>
<rwgt>
<wgt id='morphing_basis_vector_1'> +3.1948733e-04 </wgt>
<wgt id='morphing_basis_vector_2'> +1.8965233e-04 </wgt>
<wgt id='morphing_basis_vector_3'> +2.7872610e-04 </wgt>
<wgt id='morphing_basis_vector_4'> +1.4596764e-04 </wgt>
<wgt id='morphing_basis_vector_5'> +2.2755393e-04 </wgt>
</rwgt>
</event>
<event>
 4      1 +5.9529000e-06 6.76515800e+02 7.81860800e-03 9.07356900e-02
        2 -1    0    0  501    0 +0.0000000000e+00 +0.0000000000e+00 +1.1856289475e+03 1.1856289475e+03 0.0000000000e+00 0.0000e+00 -1.0000e+00
       -2 -1    0    0    0  501 -0.0000000000e+00 -0.0000000000e+00 -9.6504407726e+01 9.6504407726e+01 0.0000000000e+00 0.0000e+00 1.0000e+00
      -13  1    1    2    0    0 -2.4888957037e+02 -2.1857218080e+02 +4.1465316138e+02 5.3071372764e+02 0.0000000000e+00 0.0000e+00 1.0000e+00
       13  1    1    2    0    0 +2.4888957037e+02 +2.1857218080e+02 +6.7447137841e+02 7.5141962761e+02 0.0000000000e+00 0.0000e+00 -1.0000e+00
<mgrwt>
<rscale>  0 0.67651584E+03</rscale>
<asrwt>0</asrwt>
<pdfrwt beam="1">  1        2 0.18240444E+00 0.67651584E+03</pdfrwt>
<pdfrwt beam="2">  1       -2 0.14846833E-01 0.67651584E+03</pdfrwt>
<totfact> 0.78557884E+02</totfact>
</mgrwt>
<rwgt>
<wgt id='morphing_basis_vector_1'> +2.3739682e-04 </wgt>
<wgt id='morphing_basis_vector_2'> +1.4763264e-04 </wgt>
<wgt id='morphing_basis_vector_3'> +1.9719715e-04 </wgt>
<wgt id='morphing_basis_vector_4'> +9.1979810e-05 </wgt>
<wgt id='morphing_basis_vector_5'> +1.4754923e-04 </wgt>
</rwgt>
</event>
<event>
 4      1 +5.9529000e-06 6.33780400e+02 7.81860800e-03 9.14201900e-02
        2 -1    0    0  501    0 +0.0000000000e+00 +0.0000000000e+00 +1.4256341203e+03 1.4256341203e+03 0.0000000000e+00 0.0000e+00 1.0000e+00
       -2 -1    0    0    0  501 -0.0000000000e+00 -0.0000000000e+00 -7.0438418680e+01 7.0438418680e+01 0.0000000000e+00 0.0000e+00 -1.0000e+00
      -13  1    1    2    0    0 +2.4730065278e+02 -1.4080768221e+02 +3.4851439197e+02 4.4994077126e+02 0.0000000000e+00 0.0000e+00 1.0000e+00
       13  1    1    2    0    0 -2.4730065278e+02 +1.4080768221e+02 +1.0066813096e+03 1.0461317677e+03 0.0000000000e+00 0.0000e+00 -1.0000e+00
<mgrwt>
<rscale>  0 0.63378044E+03</rscale>
<asrwt>0</asrwt>
<pdfrwt beam="1">  1        2 0.21932831E+00 0.63378044E+03</pdfrwt>
<pdfrwt beam="2">  1       -2 0.10836681E-01 0.63378044E+03</pdfrwt>
<totfact> 0.95210013E+02</totfact>
</mgrwt>
<rwgt>
<wgt id='morphing_basis_vector_1'> +1.8877984e-04 </wgt>
<wgt id='morphing_basis_vector_2'> +1.1110506e-04 </wgt>
<wgt id='morphing_basis_vector_3'> +1.5307328e-04 </wgt>
<wgt id='morphing_basis_vector_4'> +6.9295841e-05 </wgt>
<wgt id='morphing_basis_vector_5'> +1.0717594e-04 </wgt>
</rwgt>
</event>
<event>
 4      1 +5.9529000e-06 6.31694800e+02 7.81860800e-03 9.14550300e-02
        2 -1    0    0  501    0 +0.0000000000e+00 +0.0000000000e+00 +7.3090800417e+02 7.3090800417e+02 0.0000000000e+00 0.0000e+00 1.0000e+00
       -2 -1    0    0    0  501 -0.0000000000e+00 -0.0000000000e+00 -1.3648718166e+02 1.3648718166e+02 0.0000000000e+00 0.0000e+00 -1.0000e+00
      -13  1    1    2    0    0 -7.8073248682e+01 +2.9653254341e+02 +1.9324587049e+02 3.6245130421e+02 0.0000000000e+00 0.0000e+00 -1.0000e+00
       13  1    1    2    0    0 +7.8073248682e+01 -2.9653254341e+02 +4.0117495201e+02 5.0494388162e+02 0.0000000000e+00 0.0000e+00 1.0000e+00
<mgrwt>
<rscale>  0 0.63169478E+03</rscale>
<asrwt>0</asrwt>
<pdfrwt beam="1">  1        2 0.11244738E+00 0.63169478E+03</pdfrwt>
<pdfrwt beam="2">  1       -2 0.20998028E-01 0.63169478E+03</pdfrwt>
<totfact> 0.86737134E+02</totfact>
</mgrwt>
<rwgt>
<wgt id='morphing_basis_vector_1'> +1.8822473e-04 </wgt>
<wgt id='morphing_basis_vector_2'> +1.1445845e-04 </wgt>
<wgt id='morphing_basis_vector_3'> +1.5136455e-04 </wgt>
<wgt id='morphing_basis_vector_4'> +6.6911289e-05 </wgt>
<wgt id='morphing_basis_vector_5'> +1.0542123e-04 </wgt>
</rwgt>
</event>
<event>
 4      1 +5.9529000e-06 6.73570400e+02 7.81860800e-03 9.07811500e-02
        2 -1    0    0  501    0 +0.0000000000e+00 +0.0000000000e+00 +6.1610838027e+02 6.1610838027e+02 0.0000000000e+00 0.0000e+00 1.0000e+00
       -2 -1    0    0    0  501 -0.0000000000e+00 -0.0000000000e+00 -1.8409790683e+02 1.8409790683e+02 0.0000000000e+00 0.0000e+00 -1.0000e+00
      -13  1    1    2    0    0 +4.4837762744e+01 -1.9217177167e+02 +5.4023287582e+02 5.7514517724e+02 0.0000000000e+00 0.0000e+00 1.0000e+00
       13  1    1    2    0    0 -4.4837762744e+01 +1.9217177167e+02 -1.0822240238e+02 2.2506110986e+02 0.0000000000e+00 0.0000e+00 -1.0000e+00
<mgrwt>
<rscale>  0 0.67357038E+03</rscale>
<asrwt>0</asrwt>
<pdfrwt beam="1">  1        2 0.94785904E-01 0.67357038E+03</pdfrwt>
<pdfrwt beam="2">  1       -2 0.28322755E-01 0.67357038E+03</pdfrwt>
<totfact> 0.63922289E+02</totfact>
</mgrwt>
<rwgt>
<wgt id='morphing_basis_vector_1'> +3.0581747e-04 </wgt>
<wgt id='morphing_basis_vector_2'> +3.6736535e-04 </wgt>
<wgt id='morphing_basis_vector_3'> +2.1333833e-04 </wgt>
<wgt id='morphing_basis_vector_4'> +1.9314185e-05 </wgt>
<wgt id='morphing_basis_vector_5'> +1.4308336e-04 </wgt>
</rwgt>
</event>
<event>
 4      1 +5.9529000e-06 6.38298200e+02 7.81860800e-03 9.13451900e-02
        2 -1    0    0  501    0 +0.0000000000e+00 +0.0000000000e+00 +2.0195505081e+03 2.0195505081e+03 0.0000000000e+00 0.0000e+00 -1.0000e+00
       -2 -1    0    0    0  501 -0.0000000000e+00 -0.0000000000e+00 -5.0435062802e+01 5.0435062802e+01 0.0000000000e+00 0.0000e+00 1.0000e+00
      -13  1    1    2    0    0 +2.3351267932e+02 -2.0737783174e+02 +7.7134791784e+02 8.3217266649e+02 0.0000000000e+00 0.0000e+00 1.0000e+00
       13  1    1    2    0    0 -2.3351267932e+02 +2.0737783174e+02 +1.1977675275e+03 1.2378129044e+03 0.0000000000e+00 0.0000e+00 -1.0000e+00
<mgrwt>
<rscale>  0 0.63829823E+03</rscale>
<asrwt>0</asrwt>
<pdfrwt beam="1">  1        2 0.31070002E+00 0.63829823E+03</pdfrwt>
<pdfrwt beam="2">  1       -2 0.77592420E-02 0.63829823E+03</pdfrwt>
<totfact> 0.75878484E+02</totfact>
</mgrwt>
<rwgt>
<wgt id='morphing_basis_vector_1'> +1.9522547e-04 </wgt>
<wgt id='morphing_basis_vector_2'> +1.1991924e-04 </wgt>
<wgt id='morphing_basis_vector_3'> +1.5757694e-04 </wgt>
<wgt id='morphing_basis_vector_4'> +6.9967688e-05 </wgt>
<wgt id='morphing_basis_vector_5'> +1.1101191e-04 </wgt>
</rwgt>
</event>
<event>
 4      1 +5.9529000e-06 6.79498500e+02 7.81860800e-03 9.06899000e-02
        2 -1    0    0  501    0 +0.0000000000e+00 +0.0000000000e+00 +3.6923121135e+02 3.6923121135e+02 0.0000000000e+00 0.0000e+00 -1.0000e+00
       -2 -1    0    0    0  501 -0.0000000000e+00 -0.0000000000e+00 -3.1262129763e+02 3.1262129763e+02 0.0000000000e+00 0.0000e+00 1.0000e+00
      -13  1    1    2    0    0 +2.8376510331e+01 -2.2927995741e+02 -2.2166649184e+02 3.2017270154e+02 0.0000000000e+00 0.0000e+00 1.0000e+00
       13  1    1    2    0    0 -2.8376510331e+01 +2.2927995741e+02 +2.7827640556e+02 3.6167980743e+02 0.0000000000e+00 0.0000e+00 -1.0000e+00
<mgrwt>
<rscale>  0 0.67949846E+03</rscale>
<asrwt>0</asrwt>
<pdfrwt beam="1">  1        2 0.56804801E-01 0.67949846E+03</pdfrwt>
<pdfrwt beam="2">  1       -2 0.48095584E-01 0.67949846E+03</pdfrwt>
<totfact> 0.43473790E+02</totfact>
</mgrwt>
<rwgt>
<wgt id='morphing_basis_vector_1'> +2.3737020e-04 </wgt>
<wgt id='morphing_basis_vector_2'> +1.3888092e-04 </wgt>
<wgt id='morphing_basis_vector_3'> +1.9954806e-04 </wgt>
<wgt id='morphing_basis_vector_4'> +9.7486706e-05 </wgt>
<wgt id='morphing_basis_vector_5'> +1.5079157e-04 </wgt>
</rwgt>
</event>
<event>
 4      1 +5.9529000e-06 6.38675000e+02 7.81860800e-03 9.13389600e-02
        2 -1    0    0  501    0 +0.0000000000e+00 +0.0000000000e+00 +1.2305600259e+03 1.2305600259e+03 0.0000000000e+00 0.0000e+00 -1.0000e+00
       -2 -1    0    0    0  501 -0.0000000000e+00 -0.0000000000e+00 -8.2869944222e+01 8.2869944222e+01 0.0000000000e+00 0.0000e+00 1.0000e+00
      -13  1    1    2    0    0 +3.0088465034e+02 +8.2031689461e+00 +3.5448785168e+02 4.6503817239e+02 0.0000000000e+00 0.0000e+00 1.0000e+00
       13  1    1    2    0    0 -3.0088465034e+02 -8.2031689461e+00 +7.9320223003e+02 8.4839179776e+02 0.0000000000e+00 0.0000e+00 -1.0000e+00
<mgrwt>
<rscale>  0 0.63867501E+03</rscale>
<asrwt>0</asrwt>
<pdfrwt beam="1">  1        2 0.18931691E+00 0.63867501E+03</pdfrwt>
<pdfrwt beam="2">  1       -2 0.12749223E-01 0.63867501E+03</pdfrwt>
<totfact> 0.94665191E+02</totfact>
</mgrwt>
<rwgt>
<wgt id='morphing_basis_vector_1'> +1.9435456e-04 </wgt>
<wgt id='morphing_basis_vector_2'> +1.1628655e-04 </wgt>
<wgt id='morphing_basis_vector_3'> +1.5773639e-04 </wgt>
<wgt id='morphing_basis_vector_4'> +7.1279231e-05 </wgt>
<wgt id='morphing_basis_vector_5'> +1.1134734e-04 </wgt>
</rwgt>
</event>
<event>
 4      1 +5.9529000e-06 6.44443500e+02 7.81860800e-03 9.12442100e-02
        2 -1    0    0  501    0 +0.0000000000e+00 +0.0000000000e+00 +1.1117469951e+03 1.1117469951e+03 0.0000000000e+00 0.0000e+00 -1.0000e+00
       -2 -1    0    0    0  501 -0.0000000000e+00 -0.0000000000e+00 -9.3390727979e+01 9.3390727979e+01 0.0000000000e+00 0.0000e+00 1.0000e+00
      -13  1    1    2    0    0 +2.1812680206e+02 +2.1579186345e+02 +3.2517653246e+02 4.4708523501e+02 0.0000000000e+00 0.0000e+00 1.0000e+00
       13  1    1    2    0    0 -2.1812680206e+02 -2.1579186345e+02 +6.9317973465e+02 7.5805248805e+02 0.0000000000e+00 0.0000e+00 -1.0000e+00
<mgrwt>
<rscale>  0 0.64444352E+03</rscale>
<asrwt>0</asrwt>
<pdfrwt beam="1">  1        2 0.17103799E+00 0.64444352E+03</pdfrwt>
<pdfrwt beam="2">  1       -2 0.14367805E-01 0.64444352E+03</pdfrwt>
<totfact> 0.91584584E+02</totfact>
</mgrwt>
<rwgt>
<wgt id='morphing_basis_vector_1'> +2.0050911e-04 </wgt>
<wgt id='morphing_basis_vector_2'> +1.2079217e-04 </wgt>
<wgt id='morphing_basis_vector_3'> +1.6329985e-04 </wgt>
<wgt id='morphing_basis_vector_4'> +7.4175195e-05 </wgt>
<wgt id='morphing_basis_vector_5'> +1.1641124e-04 </wgt>
</rwgt>
</event>
<event>
 4      1 +5.9529000e-06 7.25866200e+02 7.81860800e-03 9.00080400e-02
        2 -1    0    0  501    0 +0.0000000000e+00 +0.0000000000e+00 +9.1922711291e+02 9.1922711291e+02 0.0000000000e+00 0.0000e+00 -1.0000e+00
       -2 -1    0    0    0  501 -0.0000000000e+00 -0.0000000000e+00 -1.4329477324e+02 1.4329477324e+02 0.0000000000e+00 0.0000e+00 1.0000e+00
      -13  1    1    2    0    0 -2.6426917190e+02 +7.7642641089e+01 +4.2020483371e+01 2.7862572737e+02 0.0000000000e+00 0.0000e+00 1.0000e+00
       13  1    1    2    0    0 +2.6426917190e+02 -7.7642641089e+01 +7.3391185630e+02 7.8389615878e+02 0.0000000000e+00 0.0000e+00 -1.0000e+00
<mgrwt>
<rscale>  0 0.72586622E+03</rscale>
<asrwt>0</asrwt>
<pdfrwt beam="1">  1        2 0.14141955E+00 0.72586622E+03</pdfrwt>
<pdfrwt beam="2">  1       -2 0.22045350E-01 0.72586622E+03</pdfrwt>
<totfact> 0.59290902E+02</totfact>
</mgrwt>
<rwgt>
<wgt id='morphing_basis_vector_1'> +2.9785127e-04 </wgt>
<wgt id='morphing_basis_vector_2'> +1.7722666e-04 </wgt>
<wgt id='morphing_basis_vector_3'> +2.5747575e-04 </wgt>
<wgt id='morphing_basis_vector_4'> +1.3222827e-04 </wgt>
<wgt id='morphing_basis_vector_5'> +2.0651600e-04 </wgt>
</rwgt>
</event>
<event>
 4      1 +5.9529000e-06 7.43660200e+02 7.81860800e-03 8.97604100e-02
        2 -1    0    0  501    0 +0.0000000000e+00 +0.0000000000e+00 +3.0562118215e+03 3.0562118215e+03 0.0000000000e+00 0.0000e+00 -1.0000e+00
       -2 -1    0    0    0  501 -0.0000000000e+00 -0.0000000000e+00 -4.5238237474e+01 4.5238237474e+01 0.0000000000e+00 0.0000e+00 1.0000e+00
      -13  1    1    2    0    0 -9.9527122335e+01 -3.3495667912e+02 +9.7538740064e+02 1.0360898640e+03 0.0000000000e+00 0.0000e+00 1.0000e+00
       13  1    1    2    0    0 +9.9527122335e+01 +3.3495667912e+02 +2.0355861834e+03 2.0653601949e+03 0.0000000000e+00 0.0000e+00 -1.0000e+00
<mgrwt>
<rscale>  0 0.74366023E+03</rscale>
<asrwt>0</asrwt>
<pdfrwt beam="1">  1        2 0.47018627E+00 0.74366023E+03</pdfrwt>
<pdfrwt beam="2">  1       -2 0.69597313E-02 0.74366023E+03</pdfrwt>
<totfact> 0.21732955E+02</totfact>
</mgrwt>
<rwgt>
<wgt id='morphing_basis_vector_1'> +3.2633796e-04 </wgt>
<wgt id='morphing_basis_vector_2'> +2.0100072e-04 </wgt>
<wgt id='morphing_basis_vector_3'> +2.8393048e-04 </wgt>
<wgt id='morphing_basis_vector_4'> +1.4504380e-04 </wgt>
<wgt id='morphing_basis_vector_5'> +2.3124305e-04 </wgt>
</rwgt>
</event>
<event>
 4      1 +5.9529000e-06 7.27935000e+02 7.81860800e-03 8.99788600e-02
        2 -1    0    0  501    0 +0.0000000000e+00 +0.0000000000e+00 +6.4738682176e+02 6.4738682176e+02 0.0000000000e+00 0.0000e+00 -1.0000e+00
       -2 -1    0    0    0  501 -0.0000000000e+00 -0.0000000000e+00 -2.0462624466e+02 2.0462624466e+02 0.0000000000e+00 0.0000e+00 1.0000e+00
      -13  1    1    2    0    0 -1.3060434750e+00 +3.1883310044e+02 +1.5913146961e+01 3.1923264233e+02 0.0000000000e+00 0.0000e+00 1.0000e+00
       13  1    1    2    0    0 +1.3060434750e+00 -3.1883310044e+02 +4.2684743013e+02 5.3278042409e+02 0.0000000000e+00 0.0000e+00 -1.0000e+00
<mgrwt>
<rscale>  0 0.72793498E+03</rscale>
<asrwt>0</asrwt>
<pdfrwt beam="1">  1        2 0.99597972E-01 0.72793498E+03</pdfrwt>
<pdfrwt beam="2">  1       -2 0.31480961E-01 0.72793498E+03</pdfrwt>
<totfact> 0.49947870E+02</totfact>
</mgrwt>
<rwgt>
<wgt id='morphing_basis_vector_1'> +3.0167853e-04 </wgt>
<wgt id='morphing_basis_vector_2'> +1.8179010e-04 </wgt>
<wgt id='morphing_basis_vector_3'> +2.6070336e-04 </wgt>
<wgt id='morphing_basis_vector_4'> +1.3298971e-04 </wgt>
<wgt id='morphing_basis_vector_5'> +2.0926817e-04 </wgt>
</rwgt>
</event>
<event>
 4      1 +5.9529000e-06 6.42140200e+02 7.81860800e-03 9.12819200e-02
        2 -1    0    0  501    0 +0.0000000000e+00 +0.0000000000e+00 +1.8259368471e+03 1.8259368471e+03 0.0000000000e+00 0.0000e+00 -1.0000e+00
       -2 -1    0    0    0  501 -0.0000000000e+00 -0.0000000000e+00 -5.6456495420e+01 5.6456495420e+01 0.0000000000e+00 0.0000e+00 1.0000e+00
      -13  1    1    2    0    0 -2.8580490392e+02 +1.1141397496e+02 +1.1626626300e+03 1.2024482975e+03 0.0000000000e+00 0.0000e+00 1.0000e+00
       13  1    1    2    0    0 +2.8580490392e+02 -1.1141397496e+02 +6.0681772164e+02 6.7994504500e+02 0.0000000000e+00 0.0000e+00 -1.0000e+00
<mgrwt>
<rscale>  0 0.64214016E+03</rscale>
<asrwt>0</asrwt>
<pdfrwt beam="1">  1        2 0.28091332E+00 0.64214016E+03</pdfrwt>
<pdfrwt beam="2">  1       -2 0.86856161E-02 0.64214016E+03</pdfrwt>
<totfact> 0.81299065E+02</totfact>
</mgrwt>
<rwgt>
<wgt id='morphing_basis_vector_1'> +2.1465088e-04 </wgt>
<wgt id='morphing_basis_vector_2'> +1.7038785e-04 </wgt>
<wgt id='morphing_basis_vector_3'> +1.6387564e-04 </wgt>
<wgt id='morphing_basis_vector_4'> +5.8075589e-05 </wgt>
<wgt id='morphing_basis_vector_5'> +1.1421676e-04 </wgt>
</rwgt>
</event>
<event>
 4      1 +5.9529000e-06 7.13476100e+02 7.81860800e-03 9.01849500e-02
        2 -1    0    0  501    0 +0.0000000000e+00 +0.0000000000e+00 +7.4585743233e+02 7.4585743233e+02 0.0000000000e+00 0.0000e+00 -1.0000e+00
       -2 -1    0    0    0  501 -0.0000000000e+00 -0.0000000000e+00 -1.7062516620e+02 1.7062516620e+02 0.0000000000e+00 0.0000e+00 1.0000e+00
      -13  1    1    2    0    0 -1.9314063688e+02 -2.0045785765e+02 +1.0320215599e+00 2.7836616780e+02 0.0000000000e+00 0.0000e+00 1.0000e+00
       13  1    1    2    0    0 +1.9314063688e+02 +2.0045785765e+02 +5.7420024457e+02 6.3811643073e+02 0.0000000000e+00 0.0000e+00 -1.0000e+00
<mgrwt>
<rscale>  0 0.71347613E+03</rscale>
<asrwt>0</asrwt>
<pdfrwt beam="1">  1        2 0.11474730E+00 0.71347613E+03</pdfrwt>
<pdfrwt beam="2">  1       -2 0.26250026E-01 0.71347613E+03</pdfrwt>
<totfact> 0.57795411E+02</totfact>
</mgrwt>
<rwgt>
<wgt id='morphing_basis_vector_1'> +2.8076426e-04 </wgt>
<wgt id='morphing_basis_vector_2'> +1.6670619e-04 </wgt>
<wgt id='morphing_basis_vector_3'> +2.4092122e-04 </wgt>
<wgt id='morphing_basis_vector_4'> +1.2202818e-04 </wgt>
<wgt id='morphing_basis_vector_5'> +1.9039268e-04 </wgt>
</rwgt>
</event>
<event>
 4      1 +5.9529000e-06 7.08898200e+02 7.81860800e-03 9.02512600e-02
        2 -1    0    0  501    0 +0.0000000000e+00 +0.0000000000e+00 +5.1717986865e+02 5.1717986865e+02 0.0000000000e+00 0.0000e+00 1.0000e+00
       -2 -1    0    0    0  501 -0.0000000000e+00 -0.0000000000e+00 -2.4292162163e+02 2.4292162163e+02 0.0000000000e+00 0.0000e+00 -1.0000e+00
      -13  1    1    2    0    0 +1.7874928295e+02 -1.5023500087e+02 -1.4880111874e+02 2.7688198674e+02 0.0000000000e+00 0.0000e+00 -1.0000e+00
       13  1    1    2    0    0 -1.7874928295e+02 +1.5023500087e+02 +4.2305936576e+02 4.8321950354e+02 0.0000000000e+00 0.0000e+00 1.0000e+00
<mgrwt>
<rscale>  0 0.70889822E+03</rscale>
<asrwt>0</asrwt>
<pdfrwt beam="1">  1        2 0.79566134E-01 0.70889822E+03</pdfrwt>
<pdfrwt beam="2">  1       -2 0.37372557E-01 0.70889822E+03</pdfrwt>
<totfact> 0.47687219E+02</totfact>
</mgrwt>
<rwgt>
<wgt id='morphing_basis_vector_1'> +2.7427087e-04 </wgt>
<wgt id='morphing_basis_vector_2'> +1.6177653e-04 </wgt>
<wgt id='morphing_basis_vector_3'> +2.3487365e-04 </wgt>
<wgt id='morphing_basis_vector_4'> +1.1881645e-04 </wgt>
<wgt id='morphing_basis_vector_5'> +1.8468042e-04 </wgt>
</rwgt>
</event>
<event>
 4      1 +5.9529000e-06 6.30967800e+02 7.81860800e-03 9.14672100e-02
        2 -1    0    0  501    0 +0.0000000000e+00 +0.0000000000e+00 +1.4823920423e+03 1.4823920423e+03 0.0000000000e+00 0.0000e+00 -1.0000e+00
       -2 -1    0    0    0  501 -0.0000000000e+00 -0.0000000000e+00 -6.7141554669e+01 6.7141554669e+01 0.0000000000e+00 0.0000e+00 1.0000e+00
      -13  1    1    2    0    0 +1.4008064710e+02 -1.6949215836e+02 +1.5204908857e+02 2.6733706210e+02 0.0000000000e+00 0.0000e+00 1.0000e+00
       13  1    1    2    0    0 -1.4008064710e+02 +1.6949215836e+02 +1.2632013990e+03 1.2821965348e+03 0.0000000000e+00 0.0000e+00 -1.0000e+00
<mgrwt>
<rscale>  0 0.63096785E+03</rscale>
<asrwt>0</asrwt>
<pdfrwt beam="1">  1        2 0.22806029E+00 0.63096785E+03</pdfrwt>
<pdfrwt beam="2">  1       -2 0.10329471E-01 0.63096785E+03</pdfrwt>
<totfact> 0.95531795E+02</totfact>
</mgrwt>
<rwgt>
<wgt id='morphing_basis_vector_1'> +1.8516223e-04 </wgt>
<wgt id='morphing_basis_vector_2'> +1.0673555e-04 </wgt>
<wgt id='morphing_basis_vector_3'> +1.5039079e-04 </wgt>
<wgt id='morphing_basis_vector_4'> +6.8576125e-05 </wgt>
<wgt id='morphing_basis_vector_5'> +1.0483080e-04 </wgt>
</rwgt>
</event>
<event>
 4      1 +5.9529000e-06 6.80438800e+02 7.81860800e-03 9.06755200e-02
        2 -1    0    0  501    0 +0.0000000000e+00 +0.0000000000e+00 +4.7820507160e+02 4.7820507160e+02 0.0000000000e+00 0.0000e+00 -1.0000e+00
       -2 -1    0    0    0  501 -0.0000000000e+00 -0.0000000000e+00 -2.4204939296e+02 2.4204939296e+02 0.0000000000e+00 0.0000e+00 1.0000e+00
      -13  1    1    2    0    0 -1.9231016606e+02 -1.2269161207e+02 -1.4910605442e+02 2.7252347992e+02 0.0000000000e+00 0.0000e+00 1.0000e+00
       13  1    1    2    0    0 +1.9231016606e+02 +1.2269161207e+02 +3.8526173306e+02 4.4773098464e+02 0.0000000000e+00 0.0000e+00 -1.0000e+00
<mgrwt>
<rscale>  0 0.68043882E+03</rscale>
<asrwt>0</asrwt>
<pdfrwt beam="1">  1        2 0.73570011E-01 0.68043882E+03</pdfrwt>
<pdfrwt beam="2">  1       -2 0.37238368E-01 0.68043882E+03</pdfrwt>
<totfact> 0.52536738E+02</totfact>
</mgrwt>
<rwgt>
<wgt id='morphing_basis_vector_1'> +2.3847118e-04 </wgt>
<wgt id='morphing_basis_vector_2'> +1.3952551e-04 </wgt>
<wgt id='morphing_basis_vector_3'> +2.0060571e-04 </wgt>
<wgt id='morphing_basis_vector_4'> +9.8136911e-05 </wgt>
<wgt id='morphing_basis_vector_5'> +1.5180153e-04 </wgt>
</rwgt>
</event>
<event>
 4      1 +5.9529000e-06 6.43367600e+02 7.81860800e-03 9.12618100e-02
        2 -1    0    0  501    0 +0.0000000000e+00 +0.0000000000e+00 +2.3042359327e+02 2.3042359327e+02 0.0000000000e+00 0.0000e+00 -1.0000e+00
       -2 -1    0    0    0  501 -0.0000000000e+00 -0.0000000000e+00 -4.4908800823e+02 4.4908800823e+02 0.0000000000e+00 0.0000e+00 1.0000e+00
      -13  1    1    2    0    0 -1.9678596241e+01 +1.9948066121e+02 -3.7506301348e+02 4.2526702838e+02 0.0000000000e+00 0.0000e+00 1.0000e+00
       13  1    1    2    0    0 +1.9678596241e+01 -1.9948066121e+02 +1.5639859852e+02 2.5424457313e+02 0.0000000000e+00 0.0000e+00 -1.0000e+00
<mgrwt>
<rscale>  0 0.64336762E+03</rscale>
<asrwt>0</asrwt>
<pdfrwt beam="1">  1        2 0.35449784E-01 0.64336762E+03</pdfrwt>
<pdfrwt beam="2">  1       -2 0.69090463E-01 0.64336762E+03</pdfrwt>
<totfact> 0.35585097E+02</totfact>
</mgrwt>
<rwgt>
<wgt id='morphing_basis_vector_1'> +1.9744512e-04 </wgt>
<wgt id='morphing_basis_vector_2'> +1.1405043e-04 </wgt>
<wgt id='morphing_basis_vector_3'> +1.6191946e-04 </wgt>
<wgt id='morphing_basis_vector_4'> +7.5347241e-05 </wgt>
<wgt id='morphing_basis_vector_5'> +1.1547318e-04 </wgt>
</rwgt>
</event>
<event>
 4      1 +5.9529000e-06 6.77965500e+02 7.81860800e-03 9.07134100e-02
        2 -1    0    0  501    0 +0.0000000000e+00 +0.0000000000e+00 +2.9796616666e+03 2.9796616666e+03 0.0000000000e+00 0.0000e+00 -1.0000e+00
       -2 -1    0    0    0  501 -0.0000000000e+00 -0.0000000000e+00 -3.8564551901e+01 3.8564551901e+01 0.0000000000e+00 0.0000e+00 1.0000e+00
      -13  1    1    2    0    0 +3.0359017847e+02 -1.4411255609e+02 +1.2727578738e+03 1.3163768574e+03 0.0000000000e+00 0.0000e+00 1.0000e+00
       13  1    1    2    0    0 -3.0359017847e+02 +1.4411255609e+02 +1.6683392409e+03 1.7018493611e+03 0.0000000000e+00 0.0000e+00 -1.0000e+00
<mgrwt>
<rscale>  0 0.67796554E+03</rscale>
<asrwt>0</asrwt>
<pdfrwt beam="1">  1        2 0.45840931E+00 0.67796554E+03</pdfrwt>
<pdfrwt beam="2">  1       -2 0.59330103E-02 0.67796554E+03</pdfrwt>
<totfact> 0.31310745E+02</totfact>
</mgrwt>
<rwgt>
<wgt id='morphing_basis_vector_1'> +2.4034636e-04 </wgt>
<wgt id='morphing_basis_vector_2'> +1.5253582e-04 </wgt>
<wgt id='morphing_basis_vector_3'> +1.9918464e-04 </wgt>
<wgt id='morphing_basis_vector_4'> +9.1689555e-05 </wgt>
<wgt id='morphing_basis_vector_5'> +1.4905720e-04 </wgt>
</rwgt>
</event>
<event>
 4      1 +5.9529000e-06 7.06056900e+02 7.81860800e-03 9.02926800e-02
        2 -1    0    0  501    0 +0.0000000000e+00 +0.0000000000e+00 +1.3982803942e+03 1.3982803942e+03 0.0000000000e+00 0.0000e+00 -1.0000e+00
       -2 -1    0    0    0  501 -0.0000000000e+00 -0.0000000000e+00 -8.9130249053e+01 8.9130249053e+01 0.0000000000e+00 0.0000e+00 1.0000e+00
      -13  1    1    2    0    0 -2.8703555851e+01 +3.1511059189e+02 +3.2476244075e+02 4.5341947704e+02 0.0000000000e+00 0.0000e+00 1.0000e+00
       13  1    1    2    0    0 +2.8703555851e+01 -3.1511059189e+02 +9.8438770438e+02 1.0339911662e+03 0.0000000000e+00 0.0000e+00 -1.0000e+00
<mgrwt>
<rscale>  0 0.70605688E+03</rscale>
<asrwt>0</asrwt>
<pdfrwt beam="1">  1        2 0.21512004E+00 0.70605688E+03</pdfrwt>
<pdfrwt beam="2">  1       -2 0.13712347E-01 0.70605688E+03</pdfrwt>
<totfact> 0.67575673E+02</totfact>
</mgrwt>
<rwgt>
<wgt id='morphing_basis_vector_1'> +2.7182770e-04 </wgt>
<wgt id='morphing_basis_vector_2'> +1.6347639e-04 </wgt>
<wgt id='morphing_basis_vector_3'> +2.3174210e-04 </wgt>
<wgt id='morphing_basis_vector_4'> +1.1522385e-04 </wgt>
<wgt id='morphing_basis_vector_5'> +1.8115217e-04 </wgt>
</rwgt>
</event>
<event>
 4      1 +5.9529000e-06 6.33284600e+02 7.81860800e-03 9.14284600e-02
        2 -1    0    0  501    0 +0.0000000000e+00 +0.0000000000e+00 +1.3805340754e+03 1.3805340754e+03 0.0000000000e+00 0.0000e+00 1.0000e+00
       -2 -1    0    0    0  501 -0.0000000000e+00 -0.0000000000e+00 -7.2625766219e+01 7.2625766219e+01 0.0000000000e+00 0.0000e+00 -1.0000e+00
      -13  1    1    2    0    0 +1.7096851090e+02 +2.4782321157e+02 +4.2894174207e+02 5.2405876961e+02 0.0000000000e+00 0.0000e+00 -1.0000e+00
       13  1    1    2    0    0 -1.7096851090e+02 -2.4782321157e+02 +8.7896656711e+02 9.2910107201e+02 0.0000000000e+00 0.0000e+00 1.0000e+00
<mgrwt>
<rscale>  0 0.63328460E+03</rscale>
<asrwt>0</asrwt>
<pdfrwt beam="1">  1        2 0.21238984E+00 0.63328460E+03</pdfrwt>
<pdfrwt beam="2">  1       -2 0.11173196E-01 0.63328460E+03</pdfrwt>
<totfact> 0.96112008E+02</totfact>
</mgrwt>
<rwgt>
<wgt id='morphing_basis_vector_1'> +1.8914891e-04 </wgt>
<wgt id='morphing_basis_vector_2'> +1.1345704e-04 </wgt>
<wgt id='morphing_basis_vector_3'> +1.5273736e-04 </wgt>
<wgt id='morphing_basis_vector_4'> +6.8287314e-05 </wgt>
<wgt id='morphing_basis_vector_5'> +1.0675358e-04 </wgt>
</rwgt>
</event>
<event>
 4      1 +5.9529000e-06 7.32059100e+02 7.81860800e-03 8.99210000e-02
        2 -1    0    0  501    0 +0.0000000000e+00 +0.0000000000e+00 +4.3986700033e+02 4.3986700033e+02 0.0000000000e+00 0.0000e+00 -1.0000e+00
       -2 -1    0    0    0  501 -0.0000000000e+00 -0.0000000000e+00 -3.0458671022e+02 3.0458671022e+02 0.0000000000e+00 0.0000e+00 1.0000e+00
      -13  1    1    2    0    0 +1.7867616950e+02 -2.9636476756e+02 -5.3628170587e+01 3.5019027639e+02 0.0000000000e+00 0.0000e+00 1.0000e+00
       13  1    1    2    0    0 -1.7867616950e+02 +2.9636476756e+02 +1.8890846070e+02 3.9426343417e+02 0.0000000000e+00 0.0000e+00 -1.0000e+00
<mgrwt>
<rscale>  0 0.73205913E+03</rscale>
<asrwt>0</asrwt>
<pdfrwt beam="1">  1        2 0.67671846E-01 0.73205913E+03</pdfrwt>
<pdfrwt beam="2">  1       -2 0.46859494E-01 0.73205913E+03</pdfrwt>
<totfact> 0.37452830E+02</totfact>
</mgrwt>
<rwgt>
<wgt id='morphing_basis_vector_1'> +3.0919179e-04 </wgt>
<wgt id='morphing_basis_vector_2'> +1.9036142e-04 </wgt>
<wgt id='morphing_basis_vector_3'> +2.6715805e-04 </wgt>
<wgt id='morphing_basis_vector_4'> +1.3474164e-04 </wgt>
<wgt id='morphing_basis_vector_5'> +2.1483804e-04 </wgt>
</rwgt>
</event>
<event>
 4      1 +5.9529000e-06 6.22116900e+02 7.81860800e-03 9.16168900e-02
        2 -1    0    0  501    0 +0.0000000000e+00 +0.0000000000e+00 +5.6410282687e+02 5.6410282687e+02 0.0000000000e+00 0.0000e+00 -1.0000e+00
       -2 -1    0    0    0  501 -0.0000000000e+00 -0.0000000000e+00 -1.7152434027e+02 1.7152434027e+02 0.0000000000e+00 0.0000e+00 1.0000e+00
      -13  1    1    2    0    0 -1.3215909009e+02 -9.1337845280e+00 -1.3650057868e+02 1.9021529668e+02 0.0000000000e+00 0.0000e+00 1.0000e+00
       13  1    1    2    0    0 +1.3215909009e+02 +9.1337845280e+00 +5.2907906528e+02 5.4541187045e+02 0.0000000000e+00 0.0000e+00 -1.0000e+00
<mgrwt>
<rscale>  0 0.62211692E+03</rscale>
<asrwt>0</asrwt>
<pdfrwt beam="1">  1        2 0.86785050E-01 0.62211692E+03</pdfrwt>
<pdfrwt beam="2">  1       -2 0.26388360E-01 0.62211692E+03</pdfrwt>
<totfact> 0.80202439E+02</totfact>
</mgrwt>
<rwgt>
<wgt id='morphing_basis_vector_1'> +1.7655216e-04 </wgt>
<wgt id='morphing_basis_vector_2'> +1.0105944e-04 </wgt>
<wgt id='morphing_basis_vector_3'> +1.4253646e-04 </wgt>
<wgt id='morphing_basis_vector_4'> +6.4210895e-05 </wgt>
<wgt id='morphing_basis_vector_5'> +9.7669163e-05 </wgt>
</rwgt>
</event>
<event>
 4      1 +5.9529000e-06 7.39799900e+02 7.81860800e-03 8.98135000e-02
        2 -1    0    0  501    0 +0.0000000000e+00 +0.0000000000e+00 +3.2250142134e+02 3.2250142134e+02 0.0000000000e+00 0.0000e+00 1.0000e+00
       -2 -1    0    0    0  501 -0.0000000000e+00 -0.0000000000e+00 -4.2426468705e+02 4.2426468705e+02 0.0000000000e+00 0.0000e+00 -1.0000e+00
      -13  1    1    2    0    0 -4.0227608500e+01 +7.2310559954e+01 +3.1303906072e+02 3.2379087557e+02 0.0000000000e+00 0.0000e+00 1.0000e+00
       13  1    1    2    0    0 +4.0227608500e+01 -7.2310559954e+01 -4.1480232643e+02 4.2297523282e+02 0.0000000000e+00 0.0000e+00 -1.0000e+00
<mgrwt>
<rscale>  0 0.73979988E+03</rscale>
<asrwt>0</asrwt>
<pdfrwt beam="1">  1        2 0.49615604E-01 0.73979988E+03</pdfrwt>
<pdfrwt beam="2">  1       -2 0.65271490E-01 0.73979988E+03</pdfrwt>
<totfact> 0.27333055E+02</totfact>
</mgrwt>
<rwgt>
<wgt id='morphing_basis_vector_1'> +4.3295124e-04 </wgt>
<wgt id='morphing_basis_vector_2'> +5.4296377e-04 </wgt>
<wgt id='morphing_basis_vector_3'> +3.2949120e-04 </wgt>
<wgt id='morphing_basis_vector_4'> +1.3130872e-05 </wgt>
<wgt id='morphing_basis_vector_5'> +2.2135697e-04 </wgt>
</rwgt>
</event>
<event>
 4      1 +5.9529000e-06 7.30024300e+02 7.81860800e-03 8.99495000e-02
        2 -1    0    0  501    0 +0.0000000000e+00 +0.0000000000e+00 +4.5125007276e+02 4.5125007276e+02 0.0000000000e+00 0.0000e+00 1.0000e+00
       -2 -1    0    0    0  501 -0.0000000000e+00 -0.0000000000e+00 -2.9525509537e+02 2.9525509537e+02 0.0000000000e+00 0.0000e+00 -1.0000e+00
      -13  1    1    2    0    0 -1.8181262837e+02 -1.3265413142e+02 -2.1585905909e+02 3.1184625027e+02 0.0000000000e+00 0.0000e+00 -1.0000e+00
       13  1    1    2    0    0 +1.8181262837e+02 +1.3265413142e+02 +3.7185403649e+02 4.3465891785e+02 0.0000000000e+00 0.0000e+00 1.0000e+00
<mgrwt>
<rscale>  0 0.73002434E+03</rscale>
<asrwt>0</asrwt>
<pdfrwt beam="1">  1        2 0.69423088E-01 0.73002434E+03</pdfrwt>
<pdfrwt beam="2">  1       -2 0.45423861E-01 0.73002434E+03</pdfrwt>
<totfact> 0.38628490E+02</totfact>
</mgrwt>
<rwgt>
<wgt id='morphing_basis_vector_1'> +3.0344414e-04 </wgt>
<wgt id='morphing_basis_vector_2'> +1.7988250e-04 </wgt>
<wgt id='morphing_basis_vector_3'> +2.6308338e-04 </wgt>
<wgt id='morphing_basis_vector_4'> +1.3614753e-04 </wgt>
<wgt id='morphing_basis_vector_5'> +2.1214984e-04 </wgt>
</rwgt>
</event>
<event>
 4      1 +5.9529000e-06 6.77691300e+02 7.81860800e-03 9.07176200e-02
        2 -1    0    0  501    0 +0.0000000000e+00 +0.0000000000e+00 +1.6972735656e+03 1.6972735656e+03 0.0000000000e+00 0.0000e+00 -1.0000e+00
       -2 -1    0    0    0  501 -0.0000000000e+00 -0.0000000000e+00 -6.7647528811e+01 6.7647528811e+01 0.0000000000e+00 0.0000e+00 1.0000e+00
      -13  1    1    2    0    0 -2.4419920617e+02 +2.3409909559e+02 +7.6399727377e+02 8.3554022834e+02 0.0000000000e+00 0.0000e+00 1.0000e+00
       13  1    1    2    0    0 +2.4419920617e+02 -2.3409909559e+02 +8.6562876300e+02 9.2938086606e+02 0.0000000000e+00 0.0000e+00 -1.0000e+00
<mgrwt>
<rscale>  0 0.67769126E+03</rscale>
<asrwt>0</asrwt>
<pdfrwt beam="1">  1        2 0.26111898E+00 0.67769126E+03</pdfrwt>
<pdfrwt beam="2">  1       -2 0.10407313E-01 0.67769126E+03</pdfrwt>
<totfact> 0.71838399E+02</totfact>
</mgrwt>
<rwgt>
<wgt id='morphing_basis_vector_1'> +2.4160810e-04 </wgt>
<wgt id='morphing_basis_vector_2'> +1.5722758e-04 </wgt>
<wgt id='morphing_basis_vector_3'> +1.9932218e-04 </wgt>
<wgt id='morphing_basis_vector_4'> +8.9932387e-05 </wgt>
<wgt id='morphing_basis_vector_5'> +1.4873373e-04 </wgt>
</rwgt>
</event>
<event>
 4      1 +5.9529000e-06 6.21882000e+02 7.81860800e-03 9.16209000e-02
        2 -1    0    0  501    0 +0.0000000000e+00 +0.0000000000e+00 +1.1728602328e+03 1.1728602328e+03 0.0000000000e+00 0.0000e+00 -1.0000e+00
       -2 -1    0    0    0  501 -0.0000000000e+00 -0.0000000000e+00 -8.2434631296e+01 8.2434631296e+01 0.0000000000e+00 0.0000e+00 1.0000e+00
      -13  1    1    2    0    0 -1.8723446896e+02 +1.2652275330e+02 +1.1407781960e+02 2.5313731924e+02 0.0000000000e+00 0.0000e+00 1.0000e+00
       13  1    1    2    0    0 +1.8723446896e+02 -1.2652275330e+02 +9.7634778187e+02 1.0021575448e+03 0.0000000000e+00 0.0000e+00 -1.0000e+00
<mgrwt>
<rscale>  0 0.62188199E+03</rscale>
<asrwt>0</asrwt>
<pdfrwt beam="1">  1        2 0.18044002E+00 0.62188199E+03</pdfrwt>
<pdfrwt beam="2">  1       -2 0.12682252E-01 0.62188199E+03</pdfrwt>
<totfact> 0.10310581E+03</totfact>
</mgrwt>
<rwgt>
<wgt id='morphing_basis_vector_1'> +1.7654456e-04 </wgt>
<wgt id='morphing_basis_vector_2'> +1.0158259e-04 </wgt>
<wgt id='morphing_basis_vector_3'> +1.4235414e-04 </wgt>
<wgt id='morphing_basis_vector_4'> +6.3916163e-05 </wgt>
<wgt id='morphing_basis_vector_5'> +9.7483317e-05 </wgt>
</rwgt>
</event>
<event>
 4      1 +5.9529000e-06 7.19043300e+02 7.81860800e-03 9.01050000e-02
        2 -1    0    0  501    0 +0.0000000000e+00 +0.0000000000e+00 +1.9776343090e+02 1.9776343090e+02 0.0000000000e+00 0.0000e+00 -1.0000e+00
       -2 -1    0    0    0  501 -0.0000000000e+00 -0.0000000000e+00 -6.5358802659e+02 6.5358802659e+02 0.0000000000e+00 0.0000e+00 1.0000e+00
      -13  1    1    2    0    0 -1.0909290148e+02 +2.1438252839e+01 -6.3272275854e+02 6.4241649186e+02 0.0000000000e+00 0.0000e+00 1.0000e+00
       13  1    1    2    0    0 +1.0909290148e+02 -2.1438252839e+01 +1.7689816286e+02 2.0893496563e+02 0.0000000000e+00 0.0000e+00 -1.0000e+00
<mgrwt>
<rscale>  0 0.71904328E+03</rscale>
<asrwt>0</asrwt>
<pdfrwt beam="1">  1        2 0.30425143E-01 0.71904328E+03</pdfrwt>
<pdfrwt beam="2">  1       -2 0.10055200E+00 0.71904328E+03</pdfrwt>
<totfact> 0.18013573E+02</totfact>
</mgrwt>
<rwgt>
<wgt id='morphing_basis_vector_1'> +2.8780701e-04 </wgt>
<wgt id='morphing_basis_vector_2'> +1.6971938e-04 </wgt>
<wgt id='morphing_basis_vector_3'> +2.4804020e-04 </wgt>
<wgt id='morphing_basis_vector_4'> +1.2712533e-04 </wgt>
<wgt id='morphing_basis_vector_5'> +1.9753943e-04 </wgt>
</rwgt>
</event>
<event>
 4      1 +5.9529000e-06 6.26715300e+02 7.81860800e-03 9.15388000e-02
        2 -1    0    0  501    0 +0.0000000000e+00 +0.0000000000e+00 +1.2992262088e+02 1.2992262088e+02 0.0000000000e+00 0.0000e+00 1.0000e+00
       -2 -1    0    0    0  501 -0.0000000000e+00 -0.0000000000e+00 -7.5578067524e+02 7.5578067524e+02 0.0000000000e+00 0.0000e+00 -1.0000e+00
      -13  1    1    2    0    0 -1.6888945746e+02 +3.1408103135e+01 -6.8330453715e+02 7.0456739087e+02 0.0000000000e+00 0.0000e+00 -1.0000e+00
       13  1    1    2    0    0 +1.6888945746e+02 -3.1408103135e+01 +5.7446482801e+01 1.8113590525e+02 0.0000000000e+00 0.0000e+00 1.0000e+00
<mgrwt>
<rscale>  0 0.62671527E+03</rscale>
<asrwt>0</asrwt>
<pdfrwt beam="1">  1        2 0.19988096E-01 0.62671527E+03</pdfrwt>
<pdfrwt beam="2">  1       -2 0.11627395E+00 0.62671527E+03</pdfrwt>
<totfact> 0.20666502E+02</totfact>
</mgrwt>
<rwgt>
<wgt id='morphing_basis_vector_1'> +1.8093369e-04 </wgt>
<wgt id='morphing_basis_vector_2'> +1.0382090e-04 </wgt>
<wgt id='morphing_basis_vector_3'> +1.4656856e-04 </wgt>
<wgt id='morphing_basis_vector_4'> +6.6496681e-05 </wgt>
<wgt id='morphing_basis_vector_5'> +1.0134595e-04 </wgt>
</rwgt>
</event>
<event>
 4      1 +5.9529000e-06 7.07675200e+02 7.81860800e-03 9.02690600e-02
        2 -1    0    0  501    0 +0.0000000000e+00 +0.0000000000e+00 +1.0517168786e+03 1.0517168786e+03 0.0000000000e+00 0.0000e+00 1.0000e+00
       -2 -1    0    0    0  501 -0.0000000000e+00 -0.0000000000e+00 -1.1904443771e+02 1.1904443771e+02 0.0000000000e+00 0.0000e+00 -1.0000e+00
      -13  1    1    2    0    0 -1.2508639342e+02 -2.1646488857e+02 +5.2089455024e+01 2.5537612482e+02 0.0000000000e+00 0.0000e+00 -1.0000e+00
       13  1    1    2    0    0 +1.2508639342e+02 +2.1646488857e+02 +8.8058298584e+02 9.1538519146e+02 0.0000000000e+00 0.0000e+00 1.0000e+00
<mgrwt>
<rscale>  0 0.70767519E+03</rscale>
<asrwt>0</asrwt>
<pdfrwt beam="1">  1        2 0.16180259E+00 0.70767519E+03</pdfrwt>
<pdfrwt beam="2">  1       -2 0.18314530E-01 0.70767519E+03</pdfrwt>
<totfact> 0.66845881E+02</totfact>
</mgrwt>
<rwgt>
<wgt id='morphing_basis_vector_1'> +2.7274622e-04 </wgt>
<wgt id='morphing_basis_vector_2'> +1.6106289e-04 </wgt>
<wgt id='morphing_basis_vector_3'> +2.3334971e-04 </wgt>
<wgt id='morphing_basis_vector_4'> +1.1776486e-04 </wgt>
<wgt id='morphing_basis_vector_5'> +1.8316946e-04 </wgt>
</rwgt>
</event>
<event>
 4      1 +5.9529000e-06 6.91299400e+02 7.81860800e-03 9.05111100e-02
        2 -1    0    0  501    0 +0.0000000000e+00 +0.0000000000e+00 +1.8923783201e+03 1.8923783201e+03 0.0000000000e+00 0.0000e+00 -1.0000e+00
       -2 -1    0    0    0  501 -0.0000000000e+00 -0.0000000000e+00 -6.3134160992e+01 6.3134160992e+01 0.0000000000e+00 0.0000e+00 1.0000e+00
      -13  1    1    2    0    0 +3.3599317977e+02 +3.9428984948e+01 +7.1404690578e+02 7.9013229612e+02 0.0000000000e+00 0.0000e+00 1.0000e+00
       13  1    1    2    0    0 -3.3599317977e+02 -3.9428984948e+01 +1.1151972533e+03 1.1653801850e+03 0.0000000000e+00 0.0000e+00 -1.0000e+00
<mgrwt>
<rscale>  0 0.69129941E+03</rscale>
<asrwt>0</asrwt>
<pdfrwt beam="1">  1        2 0.29113508E+00 0.69129941E+03</pdfrwt>
<pdfrwt beam="2">  1       -2 0.97129493E-02 0.69129941E+03</pdfrwt>
<totfact> 0.62594284E+02</totfact>
</mgrwt>
<rwgt>
<wgt id='morphing_basis_vector_1'> +2.5547146e-04 </wgt>
<wgt id='morphing_basis_vector_2'> +1.5944597e-04 </wgt>
<wgt id='morphing_basis_vector_3'> +2.1442258e-04 </wgt>
<wgt id='morphing_basis_vector_4'> +1.0177190e-04 </wgt>
<wgt id='morphing_basis_vector_5'> +1.6371774e-04 </wgt>
</rwgt>
</event>
<event>
 4      1 +5.9529000e-06 6.61919600e+02 7.81860800e-03 9.09633800e-02
        2 -1    0    0  501    0 +0.0000000000e+00 +0.0000000000e+00 +1.9479509587e+03 1.9479509587e+03 0.0000000000e+00 0.0000e+00 1.0000e+00
       -2 -1    0    0    0  501 -0.0000000000e+00 -0.0000000000e+00 -5.6230564674e+01 5.6230564674e+01 0.0000000000e+00 0.0000e+00 -1.0000e+00
      -13  1    1    2    0    0 -1.0803232841e+02 +3.0426754978e+02 +7.2574997603e+02 7.9433163952e+02 0.0000000000e+00 0.0000e+00 1.0000e+00
       13  1    1    2    0    0 +1.0803232841e+02 -3.0426754978e+02 +1.1659704180e+03 1.2098498839e+03 0.0000000000e+00 0.0000e+00 -1.0000e+00
<mgrwt>
<rscale>  0 0.66191958E+03</rscale>
<asrwt>0</asrwt>
<pdfrwt beam="1">  1        2 0.29968471E+00 0.66191958E+03</pdfrwt>
<pdfrwt beam="2">  1       -2 0.86508576E-02 0.66191958E+03</pdfrwt>
<totfact> 0.70060734E+02</totfact>
</mgrwt>
<rwgt>
<wgt id='morphing_basis_vector_1'> +2.2029931e-04 </wgt>
<wgt id='morphing_basis_vector_2'> +1.3584761e-04 </wgt>
<wgt id='morphing_basis_vector_3'> +1.8119610e-04 </wgt>
<wgt id='morphing_basis_vector_4'> +8.3256424e-05 </wgt>
<wgt id='morphing_basis_vector_5'> +1.3273100e-04 </wgt>
</rwgt>
</event>
<event>
 4      1 +5.9529000e-06 6.43105400e+02 7.81860800e-03 9.12661000e-02
        2 -1    0    0  501    0 +0.0000000000e+00 +0.0000000000e+00 +4.5281140442e+02 4.5281140442e+02 0.0000000000e+00 0.0000e+00 -1.0000e+00
       -2 -1    0    0    0  501 -0.0000000000e+00 -0.0000000000e+00 -2.2834261137e+02 2.2834261137e+02 0.0000000000e+00 0.0000e+00 1.0000e+00
      -13  1    1    2    0    0 -8.6489879750e+01 +1.6200175048e+02 -1.6733486065e+02 2.4844722185e+02 0.0000000000e+00 0.0000e+00 1.0000e+00
       13  1    1    2    0    0 +8.6489879750e+01 -1.6200175048e+02 +3.9180365371e+02 4.3270679393e+02 0.0000000000e+00 0.0000e+00 -1.0000e+00
<mgrwt>
<rscale>  0 0.64310540E+03</rscale>
<asrwt>0</asrwt>
<pdfrwt beam="1">  1        2 0.69663293E-01 0.64310540E+03</pdfrwt>
<pdfrwt beam="2">  1       -2 0.35129633E-01 0.64310540E+03</pdfrwt>
<totfact> 0.62195966E+02</totfact>
</mgrwt>
<rwgt>
<wgt id='morphing_basis_vector_1'> +1.9713758e-04 </wgt>
<wgt id='morphing_basis_vector_2'> +1.1376413e-04 </wgt>
<wgt id='morphing_basis_vector_3'> +1.6166168e-04 </wgt>
<wgt id='morphing_basis_vector_4'> +7.5236350e-05 </wgt>
<wgt id='morphing_basis_vector_5'> +1.1524099e-04 </wgt>
</rwgt>
</event>
<event>
 4      1 +5.9529000e-06 6.34884700e+02 7.81860800e-03 9.14018000e-02
        2 -1    0    0  501    0 +0.0000000000e+00 +0.0000000000e+00 +1.9133133356e+02 1.9133133356e+02 0.0000000000e+00 0.0000e+00 1.0000e+00
       -2 -1    0    0    0  501 -0.0000000000e+00 -0.0000000000e+00 -5.2667613525e+02 5.2667613525e+02 0.0000000000e+00 0.0000e+00 -1.0000e+00
      -13  1    1    2    0    0 +2.2153710420e+02 +1.6937316268e+02 -3.3919954433e+02 4.3911534663e+02 0.0000000000e+00 0.0000e+00 -1.0000e+00
       13  1    1    2    0    0 -2.2153710420e+02 -1.6937316268e+02 +3.8547426372e+00 2.7889212218e+02 0.0000000000e+00 0.0000e+00 1.0000e+00
<mgrwt>
<rscale>  0 0.63488471E+03</rscale>
<asrwt>0</asrwt>
<pdfrwt beam="1">  1        2 0.29435590E-01 0.63488471E+03</pdfrwt>
<pdfrwt beam="2">  1       -2 0.81027096E-01 0.63488471E+03</pdfrwt>
<totfact> 0.31065592E+02</totfact>
</mgrwt>
<rwgt>
<wgt id='morphing_basis_vector_1'> +1.8969026e-04 </wgt>
<wgt id='morphing_basis_vector_2'> +1.1122046e-04 </wgt>
<wgt id='morphing_basis_vector_3'> +1.5406515e-04 </wgt>
<wgt id='morphing_basis_vector_4'> +7.0036126e-05 </wgt>
<wgt id='morphing_basis_vector_5'> +1.0810980e-04 </wgt>
</rwgt>
</event>
<event>
 4      1 +5.9529000e-06 6.75430400e+02 7.81860800e-03 9.07524200e-02
        2 -1    0    0  501    0 +0.0000000000e+00 +0.0000000000e+00 +1.2176663310e+03 1.2176663310e+03 0.0000000000e+00 0.0000e+00 -1.0000e+00
       -2 -1    0    0    0  501 -0.0000000000e+00 -0.0000000000e+00 -9.3664044149e+01 9.3664044149e+01 0.0000000000e+00 0.0000e+00 1.0000e+00
      -13  1    1    2    0    0 -1.9161979551e+02 +2.6733883789e+02 +7.1066470517e+02 7.8309164435e+02 0.0000000000e+00 0.0000e+00 -1.0000e+00
       13  1    1    2    0    0 +1.9161979551e+02 -2.6733883789e+02 +4.1333758164e+02 5.2823873076e+02 0.0000000000e+00 0.0000e+00 1.0000e+00
<mgrwt>
<rscale>  0 0.67543039E+03</rscale>
<asrwt>0</asrwt>
<pdfrwt beam="1">  1        2 0.18733327E+00 0.67543039E+03</pdfrwt>
<pdfrwt beam="2">  1       -2 0.14409854E-01 0.67543039E+03</pdfrwt>
<totfact> 0.79005851E+02</totfact>
</mgrwt>
<rwgt>
<wgt id='morphing_basis_vector_1'> +2.5004403e-04 </wgt>
<wgt id='morphing_basis_vector_2'> +1.8981047e-04 </wgt>
<wgt id='morphing_basis_vector_3'> +1.9982287e-04 </wgt>
<wgt id='morphing_basis_vector_4'> +7.7500940e-05 </wgt>
<wgt id='morphing_basis_vector_5'> +1.4613213e-04 </wgt>
</rwgt>
</event>
<event>
 4      1 +5.9529000e-06 6.74007900e+02 7.81860800e-03 9.07743800e-02
        2 -1    0    0  501    0 +0.0000000000e+00 +0.0000000000e+00 +8.6023513665e+02 8.6023513665e+02 0.0000000000e+00 0.0000e+00 1.0000e+00
       -2 -1    0    0    0  501 -0.0000000000e+00 -0.0000000000e+00 -1.3202398780e+02 1.3202398780e+02 0.0000000000e+00 0.0000e+00 -1.0000e+00
      -13  1    1    2    0    0 +3.1529801419e+02 +5.6205095870e+01 +5.1850757911e+02 6.0944397622e+02 0.0000000000e+00 0.0000e+00 -1.0000e+00
       13  1    1    2    0    0 -3.1529801419e+02 -5.6205095870e+01 +2.0970356974e+02 3.8281514823e+02 0.0000000000e+00 0.0000e+00 1.0000e+00
<mgrwt>
<rscale>  0 0.67400793E+03</rscale>
<asrwt>0</asrwt>
<pdfrwt beam="1">  1        2 0.13234386E+00 0.67400793E+03</pdfrwt>
<pdfrwt beam="2">  1       -2 0.20311383E-01 0.67400793E+03</pdfrwt>
<totfact> 0.74443994E+02</totfact>
</mgrwt>
<rwgt>
<wgt id='morphing_basis_vector_1'> +2.5384404e-04 </wgt>
<wgt id='morphing_basis_vector_2'> +2.0563101e-04 </wgt>
<wgt id='morphing_basis_vector_3'> +1.9965894e-04 </wgt>
<wgt id='morphing_basis_vector_4'> +7.1253690e-05 </wgt>
<wgt id='morphing_basis_vector_5'> +1.4454668e-04 </wgt>
</rwgt>
</event>
<event>
 4      1 +5.9529000e-06 6.62283300e+02 7.81860800e-03 9.09576300e-02
        2 -1    0    0  501    0 +0.0000000000e+00 +0.0000000000e+00 +1.8367037834e+03 1.8367037834e+03 0.0000000000e+00 0.0000e+00 1.0000e+00
       -2 -1    0    0    0  501 -0.0000000000e+00 -0.0000000000e+00 -5.9701953425e+01 5.9701953425e+01 0.0000000000e+00 0.0000e+00 -1.0000e+00
      -13  1    1    2    0    0 +2.7392556913e+02 -1.7765093384e+02 +1.0468914148e+03 1.0966205844e+03 0.0000000000e+00 0.0000e+00 1.0000e+00
       13  1    1    2    0    0 -2.7392556913e+02 +1.7765093384e+02 +7.3011041521e+02 7.9978515248e+02 0.0000000000e+00 0.0000e+00 -1.0000e+00
<mgrwt>
<rscale>  0 0.66228333E+03</rscale>
<asrwt>0</asrwt>
<pdfrwt beam="1">  1        2 0.28256977E+00 0.66228333E+03</pdfrwt>
<pdfrwt beam="2">  1       -2 0.91849174E-02 0.66228333E+03</pdfrwt>
<totfact> 0.73423066E+02</totfact>
</mgrwt>
<rwgt>
<wgt id='morphing_basis_vector_1'> +2.3094229e-04 </wgt>
<wgt id='morphing_basis_vector_2'> +1.6773960e-04 </wgt>
<wgt id='morphing_basis_vector_3'> +1.8398780e-04 </wgt>
<wgt id='morphing_basis_vector_4'> +7.3700323e-05 </wgt>
<wgt id='morphing_basis_vector_5'> +1.3292607e-04 </wgt>
</rwgt>
</event>
<event>
 4      1 +5.9529000e-06 7.08374800e+02 7.81860800e-03 9.02588700e-02
        2 -1    0    0  501    0 +0.0000000000e+00 +0.0000000000e+00 +4.3588208112e+02 4.3588208112e+02 0.0000000000e+00 0.0000e+00 1.0000e+00
       -2 -1    0    0    0  501 -0.0000000000e+00 -0.0000000000e+00 -2.8780428572e+02 2.8780428572e+02 0.0000000000e+00 0.0000e+00 -1.0000e+00
      -13  1    1    2    0    0 -3.4805363105e+02 +4.2911826893e+01 +2.3306932471e+01 3.5146261262e+02 0.0000000000e+00 0.0000e+00 -1.0000e+00
       13  1    1    2    0    0 +3.4805363105e+02 -4.2911826893e+01 +1.2477086292e+02 3.7222375422e+02 0.0000000000e+00 0.0000e+00 1.0000e+00
<mgrwt>
<rscale>  0 0.70837485E+03</rscale>
<asrwt>0</asrwt>
<pdfrwt beam="1">  1        2 0.67058782E-01 0.70837485E+03</pdfrwt>
<pdfrwt beam="2">  1       -2 0.44277582E-01 0.70837485E+03</pdfrwt>
<totfact> 0.42210757E+02</totfact>
</mgrwt>
<rwgt>
<wgt id='morphing_basis_vector_1'> +2.7900309e-04 </wgt>
<wgt id='morphing_basis_vector_2'> +1.7806224e-04 </wgt>
<wgt id='morphing_basis_vector_3'> +2.3622484e-04 </wgt>
<wgt id='morphing_basis_vector_4'> +1.1259556e-04 </wgt>
<wgt id='morphing_basis_vector_5'> +1.8387273e-04 </wgt>
</rwgt>
</event>
<event>
 4      1 +5.9529000e-06 6.52660400e+02 7.81860800e-03 9.11110200e-02
        2 -1    0    0  501    0 +0.0000000000e+00 +0.0000000000e+00 +6.4160766284e+02 6.4160766284e+02 0.0000000000e+00 0.0000e+00 -1.0000e+00
       -2 -1    0    0    0  501 -0.0000000000e+00 -0.0000000000e+00 -1.6597590383e+02 1.6597590383e+02 0.0000000000e+00 0.0000e+00 1.0000e+00
      -13  1    1    2    0    0 +1.9183237935e+02 -1.8600031905e+02 +6.0087898067e+00 2.6726744285e+02 0.0000000000e+00 0.0000e+00 1.0000e+00
       13  1    1    2    0    0 -1.9183237935e+02 +1.8600031905e+02 +4.6962296921e+02 5.4031612382e+02 0.0000000000e+00 0.0000e+00 -1.0000e+00
<mgrwt>
<rscale>  0 0.65266044E+03</rscale>
<asrwt>0</asrwt>
<pdfrwt beam="1">  1        2 0.98708870E-01 0.65266044E+03</pdfrwt>
<pdfrwt beam="2">  1       -2 0.25534755E-01 0.65266044E+03</pdfrwt>
<totfact> 0.72920443E+02</totfact>
</mgrwt>
<rwgt>
<wgt id='morphing_basis_vector_1'> +2.0759540e-04 </wgt>
<wgt id='morphing_basis_vector_2'> +1.2141628e-04 </wgt>
<wgt id='morphing_basis_vector_3'> +1.7110584e-04 </wgt>
<wgt id='morphing_basis_vector_4'> +8.0245995e-05 </wgt>
<wgt id='morphing_basis_vector_5'> +1.2392397e-04 </wgt>
</rwgt>
</event>
<event>
 4      1 +5.9529000e-06 6.76806800e+02 7.81860800e-03 9.07312100e-02
        2 -1    0    0  501    0 +0.0000000000e+00 +0.0000000000e+00 +4.1284491322e+02 4.1284491322e+02 0.0000000000e+00 0.0000e+00 1.0000e+00
       -2 -1    0    0    0  501 -0.0000000000e+00 -0.0000000000e+00 -2.7738466561e+02 2.7738466561e+02 0.0000000000e+00 0.0000e+00 -1.0000e+00
      -13  1    1    2    0    0 -8.1890624293e+01 -1.8355180984e+02 -2.0991825269e+02 2.9062521235e+02 0.0000000000e+00 0.0000e+00 -1.0000e+00
       13  1    1    2    0    0 +8.1890624293e+01 +1.8355180984e+02 +3.4537850030e+02 3.9960436648e+02 0.0000000000e+00 0.0000e+00 1.0000e+00
<mgrwt>
<rscale>  0 0.67680676E+03</rscale>
<asrwt>0</asrwt>
<pdfrwt beam="1">  1        2 0.63514602E-01 0.67680676E+03</pdfrwt>
<pdfrwt beam="2">  1       -2 0.42674564E-01 0.67680676E+03</pdfrwt>
<totfact> 0.48168193E+02</totfact>
</mgrwt>
<rwgt>
<wgt id='morphing_basis_vector_1'> +2.3408990e-04 </wgt>
<wgt id='morphing_basis_vector_2'> +1.3658241e-04 </wgt>
<wgt id='morphing_basis_vector_3'> +1.9650168e-04 </wgt>
<wgt id='morphing_basis_vector_4'> +9.5793166e-05 </wgt>
<wgt id='morphing_basis_vector_5'> +1.4793004e-04 </wgt>
</rwgt>
</event>
<event>
 4      1 +5.9529000e-06 7.04737900e+02 7.81860800e-03 9.03119800e-02
        2 -1    0    0  501    0 +0.0000000000e+00 +0.0000000000e+00 +4.2373130243e+02 4.2373130243e+02 0.0000000000e+00 0.0000e+00 -1.0000e+00
       -2 -1    0    0    0  501 -0.0000000000e+00 -0.0000000000e+00 -2.9302500790e+02 2.9302500790e+02 0.0000000000e+00 0.0000e+00 1.0000e+00
      -13  1    1    2    0    0 -3.0230042019e+02 -4.7153632612e+01 -1.1242732488e+02 3.2595845210e+02 0.0000000000e+00 0.0000e+00 1.0000e+00
       13  1    1    2    0    0 +3.0230042019e+02 +4.7153632612e+01 +2.4313361941e+02 3.9079785824e+02 0.0000000000e+00 0.0000e+00 -1.0000e+00
<mgrwt>
<rscale>  0 0.70473788E+03</rscale>
<asrwt>0</asrwt>
<pdfrwt beam="1">  1        2 0.65189431E-01 0.70473788E+03</pdfrwt>
<pdfrwt beam="2">  1       -2 0.45080770E-01 0.70473788E+03</pdfrwt>
<totfact> 0.42117622E+02</totfact>
</mgrwt>
<rwgt>
<wgt id='morphing_basis_vector_1'> +2.6973589e-04 </wgt>
<wgt id='morphing_basis_vector_2'> +1.6128143e-04 </wgt>
<wgt id='morphing_basis_vector_3'> +2.2994423e-04 </wgt>
<wgt id='morphing_basis_vector_4'> +1.1460470e-04 </wgt>
<wgt id='morphing_basis_vector_5'> +1.7955889e-04 </wgt>
</rwgt>
</event>
<event>
 4      1 +5.9529000e-06 6.45917400e+02 7.81860800e-03 9.12201700e-02
        2 -1    0    0  501    0 +0.0000000000e+00 +0.0000000000e+00 +1.1694139599e+03 1.1694139599e+03 0.0000000000e+00 0.0000e+00 -1.0000e+00
       -2 -1    0    0    0  501 -0.0000000000e+00 -0.0000000000e+00 -8.9191948826e+01 8.9191948826e+01 0.0000000000e+00 0.0000e+00 1.0000e+00
      -13  1    1    2    0    0 +2.8970954396e+02 -1.4205451998e+02 +5.6705492645e+02 6.5242807736e+02 0.0000000000e+00 0.0000e+00 -1.0000e+00
       13  1    1    2    0    0 -2.8970954396e+02 +1.4205451998e+02 +5.1316708464e+02 6.0617783139e+02 0.0000000000e+00 0.0000e+00 1.0000e+00
<mgrwt>
<rscale>  0 0.64591736E+03</rscale>
<asrwt>0</asrwt>
<pdfrwt beam="1">  1        2 0.17990983E+00 0.64591736E+03</pdfrwt>
<pdfrwt beam="2">  1       -2 0.13721839E-01 0.64591736E+03</pdfrwt>
<totfact> 0.91236477E+02</totfact>
</mgrwt>
<rwgt>
<wgt id='morphing_basis_vector_1'> +2.0797414e-04 </wgt>
<wgt id='morphing_basis_vector_2'> +1.4011399e-04 </wgt>
<wgt id='morphing_basis_vector_3'> +1.6581553e-04 </wgt>
<wgt id='morphing_basis_vector_4'> +6.9591361e-05 </wgt>
<wgt id='morphing_basis_vector_5'> +1.1766893e-04 </wgt>
</rwgt>
</event>
<event>
 4      1 +5.9529000e-06 6.65713900e+02 7.81860800e-03 9.09036100e-02
        2 -1    0    0  501    0 +0.0000000000e+00 +0.0000000000e+00 +9.7700953342e+02 9.7700953342e+02 0.0000000000e+00 0.0000e+00 -1.0000e+00
       -2 -1    0    0    0  501 -0.0000000000e+00 -0.0000000000e+00 -1.1340089761e+02 1.1340089761e+02 0.0000000000e+00 0.0000e+00 1.0000e+00
      -13  1    1    2    0    0 -2.8596889179e+02 +7.3206503799e+01 +6.8373223973e+02 7.4473295544e+02 0.0000000000e+00 0.0000e+00 1.0000e+00
       13  1    1    2    0    0 +2.8596889179e+02 -7.3206503799e+01 +1.7987639608e+02 3.4567747560e+02 0.0000000000e+00 0.0000e+00 -1.0000e+00
<mgrwt>
<rscale>  0 0.66571393E+03</rscale>
<asrwt>0</asrwt>
<pdfrwt beam="1">  1        2 0.15030915E+00 0.66571393E+03</pdfrwt>
<pdfrwt beam="2">  1       -2 0.17446293E-01 0.66571393E+03</pdfrwt>
<totfact> 0.80577532E+02</totfact>
</mgrwt>
<rwgt>
<wgt id='morphing_basis_vector_1'> +2.5635430e-04 </wgt>
<wgt id='morphing_basis_vector_2'> +2.3679206e-04 </wgt>
<wgt id='morphing_basis_vector_3'> +1.9305373e-04 </wgt>
<wgt id='morphing_basis_vector_4'> +5.4899768e-05 </wgt>
<wgt id='morphing_basis_vector_5'> +1.3594411e-04 </wgt>
</rwgt>
</event>
<event>
 4      1 +5.9529000e-06 6.99624200e+02 7.81860800e-03 9.03872000e-02
        2 -1    0    0  501    0 +0.0000000000e+00 +0.0000000000e+00 +7.8935214313e+02 7.8935214313e+02 0.0000000000e+00 0.0000e+00 1.0000e+00
       -2 -1    0    0    0  501 -0.0000000000e+00 -0.0000000000e+00 -1.5502397710e+02 1.5502397710e+02 0.0000000000e+00 0.0000e+00 -1.0000e+00
      -13  1    1    2    0    0 +2.7734483587e+02 +2.0820907768e+02 +3.7898189208e+02 5.1371047540e+02 0.0000000000e+00 0.0000e+00 -1.0000e+00
       13  1    1    2    0    0 -2.7734483587e+02 -2.0820907768e+02 +2.5534627396e+02 4.3066564483e+02 0.0000000000e+00 0.0000e+00 1.0000e+00
<mgrwt>
<rscale>  0 0.69962421E+03</rscale>
<asrwt>0</asrwt>
<pdfrwt beam="1">  1        2 0.12143879E+00 0.69962421E+03</pdfrwt>
<pdfrwt beam="2">  1       -2 0.23849843E-01 0.69962421E+03</pdfrwt>
<totfact> 0.63454082E+02</totfact>
</mgrwt>
<rwgt>
<wgt id='morphing_basis_vector_1'> +2.7640285e-04 </wgt>
<wgt id='morphing_basis_vector_2'> +1.9811965e-04 </wgt>
<wgt id='morphing_basis_vector_3'> +2.2819283e-04 </wgt>
<wgt id='morphing_basis_vector_4'> +9.6807398e-05 </wgt>
<wgt id='morphing_basis_vector_5'> +1.7307555e-04 </wgt>
</rwgt>
</event>
<event>
 4      1 +5.9529000e-06 6.62296200e+02 7.81860800e-03 9.09574300e-02
        2 -1    0    0  501    0 +0.0000000000e+00 +0.0000000000e+00 +6.2147361388e+01 6.2147361388e+01 0.0000000000e+00 0.0000e+00 1.0000e+00
       -2 -1    0    0    0  501 -0.0000000000e+00 -0.0000000000e+00 -1.7645007919e+03 1.7645007919e+03 0.0000000000e+00 0.0000e+00 -1.0000e+00
      -13  1    1    2    0    0 -1.7309908737e+02 +2.1784091702e+02 -3.5594594857e+02 4.5179140926e+02 0.0000000000e+00 0.0000e+00 1.0000e+00
       13  1    1    2    0    0 +1.7309908737e+02 -2.1784091702e+02 -1.3464074819e+03 1.3748567440e+03 0.0000000000e+00 0.0000e+00 -1.0000e+00
<mgrwt>
<rscale>  0 0.66229621E+03</rscale>
<asrwt>0</asrwt>
<pdfrwt beam="1">  1        2 0.95611320E-02 0.66229621E+03</pdfrwt>
<pdfrwt beam="2">  1       -2 0.27146168E+00 0.66229621E+03</pdfrwt>
<totfact> 0.34264120E+01</totfact>
</mgrwt>
<rwgt>
<wgt id='morphing_basis_vector_1'> +2.6035592e-04 </wgt>
<wgt id='morphing_basis_vector_2'> +2.5859093e-04 </wgt>
<wgt id='morphing_basis_vector_3'> +1.9091758e-04 </wgt>
<wgt id='morphing_basis_vector_4'> +4.5638547e-05 </wgt>
<wgt id='morphing_basis_vector_5'> +1.3247611e-04 </wgt>
</rwgt>
</event>
<event>
 4      1 +5.9529000e-06 6.39004200e+02 7.81860800e-03 9.13335300e-02
        2 -1    0    0  501    0 +0.0000000000e+00 +0.0000000000e+00 +1.0002733960e+03 1.0002733960e+03 0.0000000000e+00 0.0000e+00 -1.0000e+00
       -2 -1    0    0    0  501 -0.0000000000e+00 -0.0000000000e+00 -1.0205369219e+02 1.0205369219e+02 0.0000000000e+00 0.0000e+00 1.0000e+00
      -13  1    1    2    0    0 -2.8211193051e+02 -5.7082697197e+01 +2.0985302038e+02 3.5620761617e+02 0.0000000000e+00 0.0000e+00 1.0000e+00
       13  1    1    2    0    0 +2.8211193051e+02 +5.7082697197e+01 +6.8836668342e+02 7.4611947201e+02 0.0000000000e+00 0.0000e+00 -1.0000e+00
<mgrwt>
<rscale>  0 0.63900420E+03</rscale>
<asrwt>0</asrwt>
<pdfrwt beam="1">  1        2 0.15388821E+00 0.63900420E+03</pdfrwt>
<pdfrwt beam="2">  1       -2 0.15700569E-01 0.63900420E+03</pdfrwt>
<totfact> 0.92642350E+02</totfact>
</mgrwt>
<rwgt>
<wgt id='morphing_basis_vector_1'> +1.9403188e-04 </wgt>
<wgt id='morphing_basis_vector_2'> +1.1446761e-04 </wgt>
<wgt id='morphing_basis_vector_3'> +1.5794316e-04 </wgt>
<wgt id='morphing_basis_vector_4'> +7.2038274e-05 </wgt>
<wgt id='morphing_basis_vector_5'> +1.1163761e-04 </wgt>
</rwgt>
</event>
<event>
 4      1 +5.9529000e-06 7.09440200e+02 7.81860800e-03 9.02433800e-02
        2 -1    0    0  501    0 +0.0000000000e+00 +0.0000000000e+00 +6.5840354792e+02 6.5840354792e+02 0.0000000000e+00 0.0000e+00 1.0000e+00
       -2 -1    0    0    0  501 -0.0000000000e+00 -0.0000000000e+00 -1.9110824451e+02 1.9110824451e+02 0.0000000000e+00 0.0000e+00 -1.0000e+00
      -13  1    1    2    0    0 +2.7035996080e+02 +2.8863962395e+01 +5.0643982315e+02 5.7481208338e+02 0.0000000000e+00 0.0000e+00 1.0000e+00
       13  1    1    2    0    0 -2.7035996080e+02 -2.8863962395e+01 -3.9144519744e+01 2.7469970905e+02 0.0000000000e+00 0.0000e+00 -1.0000e+00
<mgrwt>
<rscale>  0 0.70944019E+03</rscale>
<asrwt>0</asrwt>
<pdfrwt beam="1">  1        2 0.10129285E+00 0.70944019E+03</pdfrwt>
<pdfrwt beam="2">  1       -2 0.29401269E-01 0.70944019E+03</pdfrwt>
<totfact> 0.55264714E+02</totfact>
</mgrwt>
<rwgt>
<wgt id='morphing_basis_vector_1'> +3.4369517e-04 </wgt>
<wgt id='morphing_basis_vector_2'> +3.7386988e-04 </wgt>
<wgt id='morphing_basis_vector_3'> +2.6133844e-04 </wgt>
<wgt id='morphing_basis_vector_4'> +4.5456531e-05 </wgt>
<wgt id='morphing_basis_vector_5'> +1.8328909e-04 </wgt>
</rwgt>
</event>
<event>
 4      1 +5.9529000e-06 7.13520100e+02 7.81860800e-03 9.01843200e-02
        2 -1    0    0  501    0 +0.0000000000e+00 +0.0000000000e+00 +1.8536859530e+02 1.8536859530e+02 0.0000000000e+00 0.0000e+00 -1.0000e+00
       -2 -1    0    0    0  501 -0.0000000000e+00 -0.0000000000e+00 -6.8661963232e+02 6.8661963232e+02 0.0000000000e+00 0.0000e+00 1.0000e+00
      -13  1    1    2    0    0 +1.5562761095e+01 +3.5526843149e+02 -2.8561793787e+02 4.5610904878e+02 0.0000000000e+00 0.0000e+00 1.0000e+00
       13  1    1    2    0    0 -1.5562761095e+01 -3.5526843149e+02 -2.1563309916e+02 4.1587917884e+02 0.0000000000e+00 0.0000e+00 -1.0000e+00
<mgrwt>
<rscale>  0 0.71352005E+03</rscale>
<asrwt>0</asrwt>
<pdfrwt beam="1">  1        2 0.28518245E-01 0.71352005E+03</pdfrwt>
<pdfrwt beam="2">  1       -2 0.10563379E+00 0.71352005E+03</pdfrwt>
<totfact> 0.17219919E+02</totfact>
</mgrwt>
<rwgt>
<wgt id='morphing_basis_vector_1'> +2.8751366e-04 </wgt>
<wgt id='morphing_basis_vector_2'> +1.8734653e-04 </wgt>
<wgt id='morphing_basis_vector_3'> +2.4356321e-04 </wgt>
<wgt id='morphing_basis_vector_4'> +1.1481448e-04 </wgt>
<wgt id='morphing_basis_vector_5'> +1.9023949e-04 </wgt>
</rwgt>
</event>
<event>
 4      1 +5.9529000e-06 6.59118400e+02 7.81860800e-03 9.10077800e-02
        2 -1    0    0  501    0 +0.0000000000e+00 +0.0000000000e+00 +1.3465255723e+03 1.3465255723e+03 0.0000000000e+00 0.0000e+00 -1.0000e+00
       -2 -1    0    0    0  501 -0.0000000000e+00 -0.0000000000e+00 -8.0658907630e+01 8.0658907630e+01 0.0000000000e+00 0.0000e+00 1.0000e+00
      -13  1    1    2    0    0 -2.7276042827e+02 +9.6883807145e+01 +2.9177387578e+02 4.1099479061e+02 0.0000000000e+00 0.0000e+00 1.0000e+00
       13  1    1    2    0    0 +2.7276042827e+02 -9.6883807145e+01 +9.7409278889e+02 1.0161896893e+03 0.0000000000e+00 0.0000e+00 -1.0000e+00
<mgrwt>
<rscale>  0 0.65911845E+03</rscale>
<asrwt>0</asrwt>
<pdfrwt beam="1">  1        2 0.20715776E+00 0.65911845E+03</pdfrwt>
<pdfrwt beam="2">  1       -2 0.12409064E-01 0.65911845E+03</pdfrwt>
<totfact> 0.84926369E+02</totfact>
</mgrwt>
<rwgt>
<wgt id='morphing_basis_vector_1'> +2.1498122e-04 </wgt>
<wgt id='morphing_basis_vector_2'> +1.2702208e-04 </wgt>
<wgt id='morphing_basis_vector_3'> +1.7776207e-04 </wgt>
<wgt id='morphing_basis_vector_4'> +8.3688841e-05 </wgt>
<wgt id='morphing_basis_vector_5'> +1.3004399e-04 </wgt>
</rwgt>
</event>
<event>
 4      1 +5.9529000e-06 6.31812500e+02 7.81860800e-03 9.14530600e-02
        2 -1    0    0  501    0 +0.0000000000e+00 +0.0000000000e+00 +1.5422867966e+03 1.5422867966e+03 0.0000000000e+00 0.0000e+00 1.0000e+00
       -2 -1    0    0    0  501 -0.0000000000e+00 -0.0000000000e+00 -6.4707001723e+01 6.4707001723e+01 0.0000000000e+00 0.0000e+00 -1.0000e+00
      -13  1    1    2    0    0 -1.2438205047e+02 -2.0240357704e+02 +2.0917050118e+02 3.1652867333e+02 0.0000000000e+00 0.0000e+00 -1.0000e+00
       13  1    1    2    0    0 +1.2438205047e+02 +2.0240357704e+02 +1.2684092937e+03 1.2904651250e+03 0.0000000000e+00 0.0000e+00 1.0000e+00
<mgrwt>
<rscale>  0 0.63181249E+03</rscale>
<asrwt>0</asrwt>
<pdfrwt beam="1">  1        2 0.23727486E+00 0.63181249E+03</pdfrwt>
<pdfrwt beam="2">  1       -2 0.99549245E-02 0.63181249E+03</pdfrwt>
<totfact> 0.93861481E+02</totfact>
</mgrwt>
<rwgt>
<wgt id='morphing_basis_vector_1'> +1.8609009e-04 </wgt>
<wgt id='morphing_basis_vector_2'> +1.0756542e-04 </wgt>
<wgt id='morphing_basis_vector_3'> +1.5117020e-04 </wgt>
<wgt id='morphing_basis_vector_4'> +6.8926105e-05 </wgt>
<wgt id='morphing_basis_vector_5'> +1.0553230e-04 </wgt>
</rwgt>
</event>
<event>
 4      1 +5.9529000e-06 6.23874900e+02 7.81860800e-03 9.15869500e-02
        2 -1    0    0  501    0 +0.0000000000e+00 +0.0000000000e+00 +2.2002319800e+03 2.2002319800e+03 0.0000000000e+00 0.0000e+00 -1.0000e+00
       -2 -1    0    0    0  501 -0.0000000000e+00 -0.0000000000e+00 -4.4224867373e+01 4.4224867373e+01 0.0000000000e+00 0.0000e+00 1.0000e+00
      -13  1    1    2    0    0 -8.7605714026e+01 -2.9809860946e+02 +1.1776660722e+03 1.2179634312e+03 0.0000000000e+00 0.0000e+00 -1.0000e+00
       13  1    1    2    0    0 +8.7605714026e+01 +2.9809860946e+02 +9.7834104039e+02 1.0264934161e+03 0.0000000000e+00 0.0000e+00 1.0000e+00
<mgrwt>
<rscale>  0 0.62387488E+03</rscale>
<asrwt>0</asrwt>
<pdfrwt beam="1">  1        2 0.33849714E+00 0.62387488E+03</pdfrwt>
<pdfrwt beam="2">  1       -2 0.68038275E-02 0.62387488E+03</pdfrwt>
<totfact> 0.73848122E+02</totfact>
</mgrwt>
<rwgt>
<wgt id='morphing_basis_vector_1'> +1.8655647e-04 </wgt>
<wgt id='morphing_basis_vector_2'> +1.2793468e-04 </wgt>
<wgt id='morphing_basis_vector_3'> +1.4495620e-04 </wgt>
<wgt id='morphing_basis_vector_4'> +5.8031392e-05 </wgt>
<wgt id='morphing_basis_vector_5'> +9.9037096e-05 </wgt>
</rwgt>
</event>
<event>
 4      1 +5.9529000e-06 6.79773500e+02 7.81860800e-03 9.06856900e-02
        2 -1    0    0  501    0 +0.0000000000e+00 +0.0000000000e+00 +1.1274210911e+02 1.1274210911e+02 0.0000000000e+00 0.0000e+00 -1.0000e+00
       -2 -1    0    0    0  501 -0.0000000000e+00 -0.0000000000e+00 -1.0246659835e+03 1.0246659835e+03 0.0000000000e+00 0.0000e+00 1.0000e+00
      -13  1    1    2    0    0 -2.1487653503e+01 +2.8017427216e+02 -7.7590811370e+02 8.2522284441e+02 0.0000000000e+00 0.0000e+00 1.0000e+00
       13  1    1    2    0    0 +2.1487653503e+01 -2.8017427216e+02 -1.3601576069e+02 3.1218524819e+02 0.0000000000e+00 0.0000e+00 -1.0000e+00
<mgrwt>
<rscale>  0 0.67977350E+03</rscale>
<asrwt>0</asrwt>
<pdfrwt beam="1">  1        2 0.17344939E-01 0.67977350E+03</pdfrwt>
<pdfrwt beam="2">  1       -2 0.15764093E+00 0.67977350E+03</pdfrwt>
<totfact> 0.10686670E+02</totfact>
</mgrwt>
<rwgt>
<wgt id='morphing_basis_vector_1'> +2.3818772e-04 </wgt>
<wgt id='morphing_basis_vector_2'> +1.4059988e-04 </wgt>
<wgt id='morphing_basis_vector_3'> +2.0000043e-04 </wgt>
<wgt id='morphing_basis_vector_4'> +9.7180219e-05 </wgt>
<wgt id='morphing_basis_vector_5'> +1.5107597e-04 </wgt>
</rwgt>
</event>
<event>
 4      1 +5.9529000e-06 6.50170300e+02 7.81860800e-03 9.11511700e-02
        2 -1    0    0  501    0 +0.0000000000e+00 +0.0000000000e+00 +1.8672118795e+03 1.8672118795e+03 0.0000000000e+00 0.0000e+00 -1.0000e+00
       -2 -1    0    0    0  501 -0.0000000000e+00 -0.0000000000e+00 -5.6597952359e+01 5.6597952359e+01 0.0000000000e+00 0.0000e+00 1.0000e+00
      -13  1    1    2    0    0 -1.1120142077e+02 +2.2770218810e+02 +3.0277128895e+02 3.9482210660e+02 0.0000000000e+00 0.0000e+00 1.0000e+00
       13  1    1    2    0    0 +1.1120142077e+02 -2.2770218810e+02 +1.5078426382e+03 1.5289877252e+03 0.0000000000e+00 0.0000e+00 -1.0000e+00
<mgrwt>
<rscale>  0 0.65017034E+03</rscale>
<asrwt>0</asrwt>
<pdfrwt beam="1">  1        2 0.28726332E+00 0.65017034E+03</pdfrwt>
<pdfrwt beam="2">  1       -2 0.87073787E-02 0.65017034E+03</pdfrwt>
<totfact> 0.76848813E+02</totfact>
</mgrwt>
<rwgt>
<wgt id='morphing_basis_vector_1'> +2.0479801e-04 </wgt>
<wgt id='morphing_basis_vector_2'> +1.1929182e-04 </wgt>
<wgt id='morphing_basis_vector_3'> +1.6859537e-04 </wgt>
<wgt id='morphing_basis_vector_4'> +7.8947552e-05 </wgt>
<wgt id='morphing_basis_vector_5'> +1.2161896e-04 </wgt>
</rwgt>
</event>
<event>
 4      1 +5.9529000e-06 6.50160200e+02 7.81860800e-03 9.11513300e-02
        2 -1    0    0  501    0 +0.0000000000e+00 +0.0000000000e+00 +1.6501418273e+03 1.6501418273e+03 0.0000000000e+00 0.0000e+00 1.0000e+00
       -2 -1    0    0    0  501 -0.0000000000e+00 -0.0000000000e+00 -6.4041211271e+01 6.4041211271e+01 0.0000000000e+00 0.0000e+00 -1.0000e+00
      -13  1    1    2    0    0 -3.2409134451e+02 +1.4139167875e+01 +8.4847854813e+02 9.0837820444e+02 0.0000000000e+00 0.0000e+00 1.0000e+00
       13  1    1    2    0    0 +3.2409134451e+02 -1.4139167875e+01 +7.3762206786e+02 8.0580483410e+02 0.0000000000e+00 0.0000e+00 -1.0000e+00
<mgrwt>
<rscale>  0 0.65016023E+03</rscale>
<asrwt>0</asrwt>
<pdfrwt beam="1">  1        2 0.25386794E+00 0.65016023E+03</pdfrwt>
<pdfrwt beam="2">  1       -2 0.98524953E-02 0.65016023E+03</pdfrwt>
<totfact> 0.83214926E+02</totfact>
</mgrwt>
<rwgt>
<wgt id='morphing_basis_vector_1'> +2.1324435e-04 </wgt>
<wgt id='morphing_basis_vector_2'> +1.4543640e-04 </wgt>
<wgt id='morphing_basis_vector_3'> +1.7024375e-04 </wgt>
<wgt id='morphing_basis_vector_4'> +7.1149623e-05 </wgt>
<wgt id='morphing_basis_vector_5'> +1.2150943e-04 </wgt>
</rwgt>
</event>
<event>
 4      1 +5.9529000e-06 7.01608100e+02 7.81860800e-03 9.03579400e-02
        2 -1    0    0  501    0 +0.0000000000e+00 +0.0000000000e+00 +1.4025984107e+03 1.4025984107e+03 0.0000000000e+00 0.0000e+00 -1.0000e+00
       -2 -1    0    0    0  501 -0.0000000000e+00 -0.0000000000e+00 -8.7739639921e+01 8.7739639921e+01 0.0000000000e+00 0.0000e+00 1.0000e+00
      -13  1    1    2    0    0 +2.7785737188e+02 +1.0567337520e+02 +2.6178570738e+02 3.9611025981e+02 0.0000000000e+00 0.0000e+00 1.0000e+00
       13  1    1    2    0    0 -2.7785737188e+02 -1.0567337520e+02 +1.0530730634e+03 1.0942277909e+03 0.0000000000e+00 0.0000e+00 -1.0000e+00
<mgrwt>
<rscale>  0 0.70160809E+03</rscale>
<asrwt>0</asrwt>
<pdfrwt beam="1">  1        2 0.21578435E+00 0.70160809E+03</pdfrwt>
<pdfrwt beam="2">  1       -2 0.13498407E-01 0.70160809E+03</pdfrwt>
<totfact> 0.68937334E+02</totfact>
</mgrwt>
<rwgt>
<wgt id='morphing_basis_vector_1'> +2.6545666e-04 </wgt>
<wgt id='morphing_basis_vector_2'> +1.5809660e-04 </wgt>
<wgt id='morphing_basis_vector_3'> +2.2595512e-04 </wgt>
<wgt id='morphing_basis_vector_4'> +1.1246665e-04 </wgt>
<wgt id='morphing_basis_vector_5'> +1.7579959e-04 </wgt>
</rwgt>
</event>
<event>
 4      1 +5.9529000e-06 6.37577600e+02 7.81860800e-03 9.13571100e-02
        2 -1    0    0  501    0 +0.0000000000e+00 +0.0000000000e+00 +8.0319657957e+02 8.0319657957e+02 0.0000000000e+00 0.0000e+00 1.0000e+00
       -2 -1    0    0    0  501 -0.0000000000e+00 -0.0000000000e+00 -1.2652732286e+02 1.2652732286e+02 0.0000000000e+00 0.0000e+00 -1.0000e+00
      -13  1    1    2    0    0 +1.5709280906e+02 -2.7713046146e+02 +3.2066257939e+02 4.5199992605e+02 0.0000000000e+00 0.0000e+00 -1.0000e+00
       13  1    1    2    0    0 -1.5709280906e+02 +2.7713046146e+02 +3.5600667731e+02 4.7772397639e+02 0.0000000000e+00 0.0000e+00 1.0000e+00
<mgrwt>
<rscale>  0 0.63757764E+03</rscale>
<asrwt>0</asrwt>
<pdfrwt beam="1">  1        2 0.12356870E+00 0.63757764E+03</pdfrwt>
<pdfrwt beam="2">  1       -2 0.19465742E-01 0.63757764E+03</pdfrwt>
<totfact> 0.87417778E+02</totfact>
</mgrwt>
<rwgt>
<wgt id='morphing_basis_vector_1'> +1.9720444e-04 </wgt>
<wgt id='morphing_basis_vector_2'> +1.2783292e-04 </wgt>
<wgt id='morphing_basis_vector_3'> +1.5731283e-04 </wgt>
<wgt id='morphing_basis_vector_4'> +6.7192106e-05 </wgt>
<wgt id='morphing_basis_vector_5'> +1.1037073e-04 </wgt>
</rwgt>
</event>
<event>
 4      1 +5.9529000e-06 7.37019300e+02 7.81860800e-03 8.98519500e-02
        2 -1    0    0  501    0 +0.0000000000e+00 +0.0000000000e+00 +3.6657714638e+02 3.6657714638e+02 0.0000000000e+00 0.0000e+00 -1.0000e+00
       -2 -1    0    0    0  501 -0.0000000000e+00 -0.0000000000e+00 -3.7045238341e+02 3.7045238341e+02 0.0000000000e+00 0.0000e+00 1.0000e+00
      -13  1    1    2    0    0 +1.6194565018e+01 -6.3371057824e+01 -3.6460117992e+02 3.7042161830e+02 0.0000000000e+00 0.0000e+00 1.0000e+00
       13  1    1    2    0    0 -1.6194565018e+01 +6.3371057824e+01 +3.6072594288e+02 3.6660791150e+02 0.0000000000e+00 0.0000e+00 -1.0000e+00
<mgrwt>
<rscale>  0 0.73701934E+03</rscale>
<asrwt>0</asrwt>
<pdfrwt beam="1">  1        2 0.56396484E-01 0.73701934E+03</pdfrwt>
<pdfrwt beam="2">  1       -2 0.56992674E-01 0.73701934E+03</pdfrwt>
<totfact> 0.31270385E+02</totfact>
</mgrwt>
<rwgt>
<wgt id='morphing_basis_vector_1'> +3.1347684e-04 </wgt>
<wgt id='morphing_basis_vector_2'> +1.8576238e-04 </wgt>
<wgt id='morphing_basis_vector_3'> +2.7290820e-04 </wgt>
<wgt id='morphing_basis_vector_4'> +1.4243882e-04 </wgt>
<wgt id='morphing_basis_vector_5'> +2.2185844e-04 </wgt>
</rwgt>
</event>
<event>
 4      1 +5.9529000e-06 6.21184300e+02 7.81860800e-03 9.16328100e-02
        2 -1    0    0  501    0 +0.0000000000e+00 +0.0000000000e+00 +7.5948523823e+01 7.5948523823e+01 0.0000000000e+00 0.0000e+00 -1.0000e+00
       -2 -1    0    0    0  501 -0.0000000000e+00 -0.0000000000e+00 -1.2701692348e+03 1.2701692348e+03 0.0000000000e+00 0.0000e+00 1.0000e+00
      -13  1    1    2    0    0 -9.2519435053e+01 +2.8212298276e+02 -7.9470458987e+02 8.4835641592e+02 0.0000000000e+00 0.0000e+00 1.0000e+00
       13  1    1    2    0    0 +9.2519435053e+01 -2.8212298276e+02 -3.9951612108e+02 4.9776134268e+02 0.0000000000e+00 0.0000e+00 -1.0000e+00
<mgrwt>
<rscale>  0 0.62118428E+03</rscale>
<asrwt>0</asrwt>
<pdfrwt beam="1">  1        2 0.11684388E-01 0.62118428E+03</pdfrwt>
<pdfrwt beam="2">  1       -2 0.19541065E+00 0.62118428E+03</pdfrwt>
<totfact> 0.90171511E+01</totfact>
</mgrwt>
<rwgt>
<wgt id='morphing_basis_vector_1'> +1.7758456e-04 </wgt>
<wgt id='morphing_basis_vector_2'> +1.0642441e-04 </wgt>
<wgt id='morphing_basis_vector_3'> +1.4191496e-04 </wgt>
<wgt id='morphing_basis_vector_4'> +6.2155454e-05 </wgt>
<wgt id='morphing_basis_vector_5'> +9.6930626e-05 </wgt>
</rwgt>
</event>
<event>
 4      1 +5.9529000e-06 7.04271400e+02 7.81860800e-03 9.03188100e-02
        2 -1    0    0  501    0 +0.0000000000e+00 +0.0000000000e+00 +6.3812290518e+02 6.3812290518e+02 0.0000000000e+00 0.0000e+00 -1.0000e+00
       -2 -1    0    0    0  501 -0.0000000000e+00 -0.0000000000e+00 -1.9431923973e+02 1.9431923973e+02 0.0000000000e+00 0.0000e+00 1.0000e+00
      -13  1    1    2    0    0 +1.7269466649e+02 -2.3338447218e+02 -1.3631240199e+01 2.9065025443e+02 0.0000000000e+00 0.0000e+00 1.0000e+00
       13  1    1    2    0    0 -1.7269466649e+02 +2.3338447218e+02 +4.5743490565e+02 5.4179189049e+02 0.0000000000e+00 0.0000e+00 -1.0000e+00
<mgrwt>
<rscale>  0 0.70427142E+03</rscale>
<asrwt>0</asrwt>
<pdfrwt beam="1">  1        2 0.98172754E-01 0.70427142E+03</pdfrwt>
<pdfrwt beam="2">  1       -2 0.29895268E-01 0.70427142E+03</pdfrwt>
<totfact> 0.55723810E+02</totfact>
</mgrwt>
<rwgt>
<wgt id='morphing_basis_vector_1'> +2.6875468e-04 </wgt>
<wgt id='morphing_basis_vector_2'> +1.5975598e-04 </wgt>
<wgt id='morphing_basis_vector_3'> +2.2922344e-04 </wgt>
<wgt id='morphing_basis_vector_4'> +1.1464529e-04 </wgt>
<wgt id='morphing_basis_vector_5'> +1.7900475e-04 </wgt>
</rwgt>
</event>
<event>
 4      1 +5.9529000e-06 7.12437600e+02 7.81860800e-03 9.01999500e-02
        2 -1    0    0  501    0 +0.0000000000e+00 +0.0000000000e+00 +1.2231402561e+03 1.2231402561e+03 0.0000000000e+00 0.0000e+00 1.0000e+00
       -2 -1    0    0    0  501 -0.0000000000e+00 -0.0000000000e+00 -1.0374267557e+02 1.0374267557e+02 0.0000000000e+00 0.0000e+00 -1.0000e+00
      -13  1    1    2    0    0 +7.2958498785e+01 -3.4746057297e+02 +5.0571809841e+02 6.1790176191e+02 0.0000000000e+00 0.0000e+00 -1.0000e+00
       13  1    1    2    0    0 -7.2958498785e+01 +3.4746057297e+02 +6.1367948212e+02 7.0898116977e+02 0.0000000000e+00 0.0000e+00 1.0000e+00
<mgrwt>
<rscale>  0 0.71243763E+03</rscale>
<asrwt>0</asrwt>
<pdfrwt beam="1">  1        2 0.18817541E+00 0.71243763E+03</pdfrwt>
<pdfrwt beam="2">  1       -2 0.15960412E-01 0.71243763E+03</pdfrwt>
<totfact> 0.66377290E+02</totfact>
</mgrwt>
<rwgt>
<wgt id='morphing_basis_vector_1'> +2.8598453e-04 </wgt>
<wgt id='morphing_basis_vector_2'> +1.8622566e-04 </wgt>
<wgt id='morphing_basis_vector_3'> +2.4210829e-04 </wgt>
<wgt id='morphing_basis_vector_4'> +1.1404801e-04 </wgt>
<wgt id='morphing_basis_vector_5'> +1.8887901e-04 </wgt>
</rwgt>
</event>
<event>
 4      1 +5.9529000e-06 7.13903000e+02 7.81860800e-03 9.01787900e-02
        2 -1    0    0  501    0 +0.0000000000e+00 +0.0000000000e+00 +1.3901219649e+03 1.3901219649e+03 0.0000000000e+00 0.0000e+00 -1.0000e+00
       -2 -1    0    0    0  501 -0.0000000000e+00 -0.0000000000e+00 -9.1656986433e+01 9.1656986433e+01 0.0000000000e+00 0.0000e+00 1.0000e+00
      -13  1    1    2    0    0 -2.9167243955e+02 -5.4347737146e+01 +2.3730041593e+02 3.7991838061e+02 0.0000000000e+00 0.0000e+00 1.0000e+00
       13  1    1    2    0    0 +2.9167243955e+02 +5.4347737146e+01 +1.0611645625e+03 1.1018605707e+03 0.0000000000e+00 0.0000e+00 -1.0000e+00
<mgrwt>
<rscale>  0 0.71390305E+03</rscale>
<asrwt>0</asrwt>
<pdfrwt beam="1">  1        2 0.21386490E+00 0.71390305E+03</pdfrwt>
<pdfrwt beam="2">  1       -2 0.14101076E-01 0.71390305E+03</pdfrwt>
<totfact> 0.65258368E+02</totfact>
</mgrwt>
<rwgt>
<wgt id='morphing_basis_vector_1'> +2.8164453e-04 </wgt>
<wgt id='morphing_basis_vector_2'> +1.6799866e-04 </wgt>
<wgt id='morphing_basis_vector_3'> +2.4159574e-04 </wgt>
<wgt id='morphing_basis_vector_4'> +1.2203933e-04 </wgt>
<wgt id='morphing_basis_vector_5'> +1.9092325e-04 </wgt>
</rwgt>
</event>
<event>
 4      1 +5.9529000e-06 6.21594800e+02 7.81860800e-03 9.16258000e-02
        2 -1    0    0  501    0 +0.0000000000e+00 +0.0000000000e+00 +7.0487080060e+02 7.0487080060e+02 0.0000000000e+00 0.0000e+00 -1.0000e+00
       -2 -1    0    0    0  501 -0.0000000000e+00 -0.0000000000e+00 -1.3703934950e+02 1.3703934950e+02 0.0000000000e+00 0.0000e+00 1.0000e+00
      -13  1    1    2    0    0 +1.4567337552e+02 -2.7452099070e+02 +2.8870999230e+02 4.2418859758e+02 0.0000000000e+00 0.0000e+00 1.0000e+00
       13  1    1    2    0    0 -1.4567337552e+02 +2.7452099070e+02 +2.7912145881e+02 4.1772155251e+02 0.0000000000e+00 0.0000e+00 -1.0000e+00
<mgrwt>
<rscale>  0 0.62159484E+03</rscale>
<asrwt>0</asrwt>
<pdfrwt beam="1">  1        2 0.10844166E+00 0.62159484E+03</pdfrwt>
<pdfrwt beam="2">  1       -2 0.21082977E-01 0.62159484E+03</pdfrwt>
<totfact> 0.90094431E+02</totfact>
</mgrwt>
<rwgt>
<wgt id='morphing_basis_vector_1'> +1.8232417e-04 </wgt>
<wgt id='morphing_basis_vector_2'> +1.2015135e-04 </wgt>
<wgt id='morphing_basis_vector_3'> +1.4270132e-04 </wgt>
<wgt id='morphing_basis_vector_4'> +5.8705279e-05 </wgt>
<wgt id='morphing_basis_vector_5'> +9.7242585e-05 </wgt>
</rwgt>
</event>
<event>
 4      1 +5.9529000e-06 6.21403400e+02 7.81860800e-03 9.16290700e-02
        2 -1    0    0  501    0 +0.0000000000e+00 +0.0000000000e+00 +3.4802047709e+02 3.4802047709e+02 0.0000000000e+00 0.0000e+00 -1.0000e+00
       -2 -1    0    0    0  501 -0.0000000000e+00 -0.0000000000e+00 -2.7738467207e+02 2.7738467207e+02 0.0000000000e+00 0.0000e+00 1.0000e+00
      -13  1    1    2    0    0 +1.2508757833e+02 -1.4128404807e+02 -2.1310656648e+02 2.8464450314e+02 0.0000000000e+00 0.0000e+00 1.0000e+00
       13  1    1    2    0    0 -1.2508757833e+02 +1.4128404807e+02 +2.8374237151e+02 3.4076064602e+02 0.0000000000e+00 0.0000e+00 -1.0000e+00
<mgrwt>
<rscale>  0 0.62140340E+03</rscale>
<asrwt>0</asrwt>
<pdfrwt beam="1">  1        2 0.53541612E-01 0.62140340E+03</pdfrwt>
<pdfrwt beam="2">  1       -2 0.42674565E-01 0.62140340E+03</pdfrwt>
<totfact> 0.58467147E+02</totfact>
</mgrwt>
<rwgt>
<wgt id='morphing_basis_vector_1'> +1.7595613e-04 </wgt>
<wgt id='morphing_basis_vector_2'> +1.0087210e-04 </wgt>
<wgt id='morphing_basis_vector_3'> +1.4192625e-04 </wgt>
<wgt id='morphing_basis_vector_4'> +6.3797580e-05 </wgt>
<wgt id='morphing_basis_vector_5'> +9.7106936e-05 </wgt>
</rwgt>
</event>
<event>
 4      1 +5.9529000e-06 6.29108800e+02 7.81860800e-03 9.14984400e-02
        2 -1    0    0  501    0 +0.0000000000e+00 +0.0000000000e+00 +7.3175807691e+01 7.3175807691e+01 0.0000000000e+00 0.0000e+00 1.0000e+00
       -2 -1    0    0    0  501 -0.0000000000e+00 -0.0000000000e+00 -1.3521472569e+03 1.3521472569e+03 0.0000000000e+00 0.0000e+00 -1.0000e+00
      -13  1    1    2    0    0 -1.4696134812e+02 -2.5035903188e+02 -3.6510035966e+02 4.6644994942e+02 0.0000000000e+00 0.0000e+00 1.0000e+00
       13  1    1    2    0    0 +1.4696134812e+02 +2.5035903188e+02 -9.1387108952e+02 9.5887311514e+02 0.0000000000e+00 0.0000e+00 -1.0000e+00
<mgrwt>
<rscale>  0 0.62910879E+03</rscale>
<asrwt>0</asrwt>
<pdfrwt beam="1">  1        2 0.11257817E-01 0.62910879E+03</pdfrwt>
<pdfrwt beam="2">  1       -2 0.20802264E+00 0.62910879E+03</pdfrwt>
<totfact> 0.76603366E+01</totfact>
</mgrwt>
<rwgt>
<wgt id='morphing_basis_vector_1'> +2.0614876e-04 </wgt>
<wgt id='morphing_basis_vector_2'> +1.7618179e-04 </wgt>
<wgt id='morphing_basis_vector_3'> +1.5156404e-04 </wgt>
<wgt id='morphing_basis_vector_4'> +4.8000358e-05 </wgt>
<wgt id='morphing_basis_vector_5'> +1.0318455e-04 </wgt>
</rwgt>
</event>
<event>
 4      1 +5.9529000e-06 6.38283700e+02 7.81860800e-03 9.13454300e-02
        2 -1    0    0  501    0 +0.0000000000e+00 +0.0000000000e+00 +3.7383548418e+02 3.7383548418e+02 0.0000000000e+00 0.0000e+00 -1.0000e+00
       -2 -1    0    0    0  501 -0.0000000000e+00 -0.0000000000e+00 -2.7245013480e+02 2.7245013480e+02 0.0000000000e+00 0.0000e+00 1.0000e+00
      -13  1    1    2    0    0 -2.7117486317e+02 -3.5576748867e+01 -1.1583809520e+02 2.9701847716e+02 0.0000000000e+00 0.0000e+00 1.0000e+00
       13  1    1    2    0    0 +2.7117486317e+02 +3.5576748867e+01 +2.1722344457e+02 3.4926714181e+02 0.0000000000e+00 0.0000e+00 -1.0000e+00
<mgrwt>
<rscale>  0 0.63828372E+03</rscale>
<asrwt>0</asrwt>
<pdfrwt beam="1">  1        2 0.57513151E-01 0.63828372E+03</pdfrwt>
<pdfrwt beam="2">  1       -2 0.41915406E-01 0.63828372E+03</pdfrwt>
<totfact> 0.55775312E+02</totfact>
</mgrwt>
<rwgt>
<wgt id='morphing_basis_vector_1'> +1.9292573e-04 </wgt>
<wgt id='morphing_basis_vector_2'> +1.1283896e-04 </wgt>
<wgt id='morphing_basis_vector_3'> +1.5720566e-04 </wgt>
<wgt id='morphing_basis_vector_4'> +7.1988198e-05 </wgt>
<wgt id='morphing_basis_vector_5'> +1.1101763e-04 </wgt>
</rwgt>
</event>
<event>
 4      1 +5.9529000e-06 6.43563500e+02 7.81860800e-03 9.12586000e-02
        2 -1    0    0  501    0 +0.0000000000e+00 +0.0000000000e+00 +1.7515728671e+02 1.7515728671e+02 0.0000000000e+00 0.0000e+00 1.0000e+00
       -2 -1    0    0    0  501 -0.0000000000e+00 -0.0000000000e+00 -5.9114580217e+02 5.9114580217e+02 0.0000000000e+00 0.0000e+00 -1.0000e+00
      -13  1    1    2    0    0 -2.4377332104e+02 -1.7376725402e+02 -6.7494476814e+01 3.0688107635e+02 0.0000000000e+00 0.0000e+00 1.0000e+00
       13  1    1    2    0    0 +2.4377332104e+02 +1.7376725402e+02 -3.4849403865e+02 4.5942201252e+02 0.0000000000e+00 0.0000e+00 -1.0000e+00
<mgrwt>
<rscale>  0 0.64356350E+03</rscale>
<asrwt>0</asrwt>
<pdfrwt beam="1">  1        2 0.26947275E-01 0.64356350E+03</pdfrwt>
<pdfrwt beam="2">  1       -2 0.90945509E-01 0.64356350E+03</pdfrwt>
<totfact> 0.26389724E+02</totfact>
</mgrwt>
<rwgt>
<wgt id='morphing_basis_vector_1'> +2.2100377e-04 </wgt>
<wgt id='morphing_basis_vector_2'> +1.8643108e-04 </wgt>
<wgt id='morphing_basis_vector_3'> +1.6617733e-04 </wgt>
<wgt id='morphing_basis_vector_4'> +5.4370424e-05 </wgt>
<wgt id='morphing_basis_vector_5'> +1.1542035e-04 </wgt>
</rwgt>
</event>
<event>
 4      1 +5.9529000e-06 6.85589500e+02 7.81860800e-03 9.05971500e-02
        2 -1    0    0  501    0 +0.0000000000e+00 +0.0000000000e+00 +7.7631760580e+01 7.7631760580e+01 0.0000000000e+00 0.0000e+00 -1.0000e+00
       -2 -1    0    0    0  501 -0.0000000000e+00 -0.0000000000e+00 -1.5136621035e+03 1.5136621035e+03 0.0000000000e+00 0.0000e+00 1.0000e+00
      -13  1    1    2    0    0 -1.1498625045e+02 +2.1590261187e+02 -1.2754197265e+03 1.2986651818e+03 0.0000000000e+00 0.0000e+00 1.0000e+00
       13  1    1    2    0    0 +1.1498625045e+02 -2.1590261187e+02 -1.6061061642e+02 2.9262868231e+02 0.0000000000e+00 0.0000e+00 -1.0000e+00
<mgrwt>
<rscale>  0 0.68558954E+03</rscale>
<asrwt>0</asrwt>
<pdfrwt beam="1">  1        2 0.11943349E-01 0.68558954E+03</pdfrwt>
<pdfrwt beam="2">  1       -2 0.23287108E+00 0.68558954E+03</pdfrwt>
<totfact> 0.47324664E+01</totfact>
</mgrwt>
<rwgt>
<wgt id='morphing_basis_vector_1'> +2.4474635e-04 </wgt>
<wgt id='morphing_basis_vector_2'> +1.4363108e-04 </wgt>
<wgt id='morphing_basis_vector_3'> +2.0652763e-04 </wgt>
<wgt id='morphing_basis_vector_4'> +1.0157990e-04 </wgt>
<wgt id='morphing_basis_vector_5'> +1.5741472e-04 </wgt>
</rwgt>
</event>
<event>
 4      1 +5.9529000e-06 6.49673100e+02 7.81860800e-03 9.11592100e-02
        2 -1    0    0  501    0 +0.0000000000e+00 +0.0000000000e+00 +1.0196221613e+03 1.0196221613e+03 0.0000000000e+00 0.0000e+00 -1.0000e+00
       -2 -1    0    0    0  501 -0.0000000000e+00 -0.0000000000e+00 -1.0348811599e+02 1.0348811599e+02 0.0000000000e+00 0.0000e+00 1.0000e+00
      -13  1    1    2    0    0 +2.7840741697e+01 -3.1247962164e+02 +3.1239992496e+02 4.4273280198e+02 0.0000000000e+00 0.0000e+00 1.0000e+00
       13  1    1    2    0    0 -2.7840741697e+01 +3.1247962164e+02 +6.0373412038e+02 6.8037747533e+02 0.0000000000e+00 0.0000e+00 -1.0000e+00
<mgrwt>
<rscale>  0 0.64967308E+03</rscale>
<asrwt>0</asrwt>
<pdfrwt beam="1">  1        2 0.15686494E+00 0.64967308E+03</pdfrwt>
<pdfrwt beam="2">  1       -2 0.15921249E-01 0.64967308E+03</pdfrwt>
<totfact> 0.88101327E+02</totfact>
</mgrwt>
<rwgt>
<wgt id='morphing_basis_vector_1'> +2.0645453e-04 </wgt>
<wgt id='morphing_basis_vector_2'> +1.2570972e-04 </wgt>
<wgt id='morphing_basis_vector_3'> +1.6852793e-04 </wgt>
<wgt id='morphing_basis_vector_4'> +7.6655265e-05 </wgt>
<wgt id='morphing_basis_vector_5'> +1.2113641e-04 </wgt>
</rwgt>
</event>
<event>
 4      1 +5.9529000e-06 6.23289400e+02 7.81860800e-03 9.15969100e-02
        2 -1    0    0  501    0 +0.0000000000e+00 +0.0000000000e+00 +1.7283178395e+03 1.7283178395e+03 0.0000000000e+00 0.0000e+00 1.0000e+00
       -2 -1    0    0    0  501 -0.0000000000e+00 -0.0000000000e+00 -5.6194775682e+01 5.6194775682e+01 0.0000000000e+00 0.0000e+00 -1.0000e+00
      -13  1    1    2    0    0 +2.6437103506e+02 -4.4910579126e+01 +3.8144439126e+02 4.6627119568e+02 0.0000000000e+00 0.0000e+00 -1.0000e+00
       13  1    1    2    0    0 -2.6437103506e+02 +4.4910579126e+01 +1.2906786726e+03 1.3182414195e+03 0.0000000000e+00 0.0000e+00 1.0000e+00
<mgrwt>
<rscale>  0 0.62328945E+03</rscale>
<asrwt>0</asrwt>
<pdfrwt beam="1">  1        2 0.26589501E+00 0.62328945E+03</pdfrwt>
<pdfrwt beam="2">  1       -2 0.86453514E-02 0.62328945E+03</pdfrwt>
<totfact> 0.92661219E+02</totfact>
</mgrwt>
<rwgt>
<wgt id='morphing_basis_vector_1'> +1.7833639e-04 </wgt>
<wgt id='morphing_basis_vector_2'> +1.0384893e-04 </wgt>
<wgt id='morphing_basis_vector_3'> +1.4362666e-04 </wgt>
<wgt id='morphing_basis_vector_4'> +6.4218987e-05 </wgt>
<wgt id='morphing_basis_vector_5'> +9.8595688e-05 </wgt>
</rwgt>
</event>
<event>
 4      1 +5.9529000e-06 7.34266100e+02 7.81860800e-03 8.98902100e-02
        2 -1    0    0  501    0 +0.0000000000e+00 +0.0000000000e+00 +1.8583503308e+02 1.8583503308e+02 0.0000000000e+00 0.0000e+00 -1.0000e+00
       -2 -1    0    0    0  501 -0.0000000000e+00 -0.0000000000e+00 -7.2530274481e+02 7.2530274481e+02 0.0000000000e+00 0.0000e+00 1.0000e+00
      -13  1    1    2    0    0 +1.7698711403e+00 -2.2373887667e+02 -6.3092322742e+02 6.6942239003e+02 0.0000000000e+00 0.0000e+00 1.0000e+00
       13  1    1    2    0    0 -1.7698711403e+00 +2.2373887667e+02 +9.1455515695e+01 2.4171538786e+02 0.0000000000e+00 0.0000e+00 -1.0000e+00
<mgrwt>
<rscale>  0 0.73426605E+03</rscale>
<asrwt>0</asrwt>
<pdfrwt beam="1">  1        2 0.28590005E-01 0.73426605E+03</pdfrwt>
<pdfrwt beam="2">  1       -2 0.11158504E+00 0.73426605E+03</pdfrwt>
<totfact> 0.14964505E+02</totfact>
</mgrwt>
<rwgt>
<wgt id='morphing_basis_vector_1'> +3.0958980e-04 </wgt>
<wgt id='morphing_basis_vector_2'> +1.8371501e-04 </wgt>
<wgt id='morphing_basis_vector_3'> +2.6904956e-04 </wgt>
<wgt id='morphing_basis_vector_4'> +1.3983283e-04 </wgt>
<wgt id='morphing_basis_vector_5'> +2.1799656e-04 </wgt>
</rwgt>
</event>
<event>
 4      1 +5.9529000e-06 7.10998200e+02 7.81860800e-03 9.02207800e-02
        2 -1    0    0  501    0 +0.0000000000e+00 +0.0000000000e+00 +1.7600887677e+03 1.7600887677e+03 0.0000000000e+00 0.0000e+00 -1.0000e+00
       -2 -1    0    0    0  501 -0.0000000000e+00 -0.0000000000e+00 -7.1802966229e+01 7.1802966229e+01 0.0000000000e+00 0.0000e+00 1.0000e+00
      -13  1    1    2    0    0 +1.9925364496e+02 +1.8975822991e+02 +2.6417470050e+02 3.8144262115e+02 0.0000000000e+00 0.0000e+00 1.0000e+00
       13  1    1    2    0    0 -1.9925364496e+02 -1.8975822991e+02 +1.4241111010e+03 1.4504491128e+03 0.0000000000e+00 0.0000e+00 -1.0000e+00
<mgrwt>
<rscale>  0 0.71099816E+03</rscale>
<asrwt>0</asrwt>
<pdfrwt beam="1">  1        2 0.27078285E+00 0.71099816E+03</pdfrwt>
<pdfrwt beam="2">  1       -2 0.11046612E-01 0.71099816E+03</pdfrwt>
<totfact> 0.60312853E+02</totfact>
</mgrwt>
<rwgt>
<wgt id='morphing_basis_vector_1'> +2.7739554e-04 </wgt>
<wgt id='morphing_basis_vector_2'> +1.6452012e-04 </wgt>
<wgt id='morphing_basis_vector_3'> +2.3769304e-04 </wgt>
<wgt id='morphing_basis_vector_4'> +1.2010920e-04 </wgt>
<wgt id='morphing_basis_vector_5'> +1.8728054e-04 </wgt>
</rwgt>
</event>
<event>
 4      1 +5.9529000e-06 7.27041200e+02 7.81860800e-03 8.99914500e-02
        2 -1    0    0  501    0 +0.0000000000e+00 +0.0000000000e+00 +2.4635535350e+03 2.4635535350e+03 0.0000000000e+00 0.0000e+00 -1.0000e+00
       -2 -1    0    0    0  501 -0.0000000000e+00 -0.0000000000e+00 -5.3640904383e+01 5.3640904383e+01 0.0000000000e+00 0.0000e+00 1.0000e+00
      -13  1    1    2    0    0 -3.3594434775e+02 +8.2892273566e+01 +8.1914504854e+02 8.8922907305e+02 0.0000000000e+00 0.0000e+00 1.0000e+00
       13  1    1    2    0    0 +3.3594434775e+02 -8.2892273566e+01 +1.5907675821e+03 1.6279653664e+03 0.0000000000e+00 0.0000e+00 -1.0000e+00
<mgrwt>
<rscale>  0 0.72704124E+03</rscale>
<asrwt>0</asrwt>
<pdfrwt beam="1">  1        2 0.37900815E+00 0.72704124E+03</pdfrwt>
<pdfrwt beam="2">  1       -2 0.82524488E-02 0.72704124E+03</pdfrwt>
<totfact> 0.38465962E+02</totfact>
</mgrwt>
<rwgt>
<wgt id='morphing_basis_vector_1'> +3.0216399e-04 </wgt>
<wgt id='morphing_basis_vector_2'> +1.8640678e-04 </wgt>
<wgt id='morphing_basis_vector_3'> +2.6021015e-04 </wgt>
<wgt id='morphing_basis_vector_4'> +1.3027291e-04 </wgt>
<wgt id='morphing_basis_vector_5'> +2.0800104e-04 </wgt>
</rwgt>
</event>
<event>
 4      1 +5.9529000e-06 6.33733800e+02 7.81860800e-03 9.14209700e-02
        2 -1    0    0  501    0 +0.0000000000e+00 +0.0000000000e+00 +1.6145796751e+02 1.6145796751e+02 0.0000000000e+00 0.0000e+00 -1.0000e+00
       -2 -1    0    0    0  501 -0.0000000000e+00 -0.0000000000e+00 -6.2186239286e+02 6.2186239286e+02 0.0000000000e+00 0.0000e+00 1.0000e+00
      -13  1    1    2    0    0 -2.9697870315e+02 +6.2332566155e+01 -3.4296632102e+02 4.5793841975e+02 0.0000000000e+00 0.0000e+00 1.0000e+00
       13  1    1    2    0    0 +2.9697870315e+02 -6.2332566155e+01 -1.1743810433e+02 3.2538194062e+02 0.0000000000e+00 0.0000e+00 -1.0000e+00
<mgrwt>
<rscale>  0 0.63373382E+03</rscale>
<asrwt>0</asrwt>
<pdfrwt beam="1">  1        2 0.24839687E-01 0.63373382E+03</pdfrwt>
<pdfrwt beam="2">  1       -2 0.95671138E-01 0.63373382E+03</pdfrwt>
<totfact> 0.25789259E+02</totfact>
</mgrwt>
<rwgt>
<wgt id='morphing_basis_vector_1'> +1.8978129e-04 </wgt>
<wgt id='morphing_basis_vector_2'> +1.1431863e-04 </wgt>
<wgt id='morphing_basis_vector_3'> +1.5317803e-04 </wgt>
<wgt id='morphing_basis_vector_4'> +6.8355596e-05 </wgt>
<wgt id='morphing_basis_vector_5'> +1.0712991e-04 </wgt>
</rwgt>
</event>
<event>
 4      1 +5.9529000e-06 6.38495000e+02 7.81860800e-03 9.13419400e-02
        2 -1    0    0  501    0 +0.0000000000e+00 +0.0000000000e+00 +6.9075149180e+02 6.9075149180e+02 0.0000000000e+00 0.0000e+00 -1.0000e+00
       -2 -1    0    0    0  501 -0.0000000000e+00 -0.0000000000e+00 -1.4754794961e+02 1.4754794961e+02 0.0000000000e+00 0.0000e+00 1.0000e+00
      -13  1    1    2    0    0 +1.0436644345e+02 +8.6082252661e+01 -1.0805186030e+02 1.7314073251e+02 0.0000000000e+00 0.0000e+00 1.0000e+00
       13  1    1    2    0    0 -1.0436644345e+02 -8.6082252661e+01 +6.5125540249e+02 6.6515870889e+02 0.0000000000e+00 0.0000e+00 -1.0000e+00
<mgrwt>
<rscale>  0 0.63849500E+03</rscale>
<asrwt>0</asrwt>
<pdfrwt beam="1">  1        2 0.10626946E+00 0.63849500E+03</pdfrwt>
<pdfrwt beam="2">  1       -2 0.22699685E-01 0.63849500E+03</pdfrwt>
<totfact> 0.81543696E+02</totfact>
</mgrwt>
<rwgt>
<wgt id='morphing_basis_vector_1'> +1.9241738e-04 </wgt>
<wgt id='morphing_basis_vector_2'> +1.1074035e-04 </wgt>
<wgt id='morphing_basis_vector_3'> +1.5729064e-04 </wgt>
<wgt id='morphing_basis_vector_4'> +7.2742293e-05 </wgt>
<wgt id='morphing_basis_vector_5'> +1.1120590e-04 </wgt>
</rwgt>
</event>
<event>
 4      1 +5.9529000e-06 6.65365400e+02 7.81860800e-03 9.09090800e-02
        2 -1    0    0  501    0 +0.0000000000e+00 +0.0000000000e+00 +1.2578930035e+03 1.2578930035e+03 0.0000000000e+00 0.0000e+00 1.0000e+00
       -2 -1    0    0    0  501 -0.0000000000e+00 -0.0000000000e+00 -8.7986641558e+01 8.7986641558e+01 0.0000000000e+00 0.0000e+00 -1.0000e+00
      -13  1    1    2    0    0 +2.5155746484e+02 +1.8915574411e+01 +1.4624651378e+02 2.9159389545e+02 0.0000000000e+00 0.0000e+00 -1.0000e+00
       13  1    1    2    0    0 -2.5155746484e+02 -1.8915574411e+01 +1.0236598481e+03 1.0542857496e+03 0.0000000000e+00 0.0000e+00 1.0000e+00
<mgrwt>
<rscale>  0 0.66536541E+03</rscale>
<asrwt>0</asrwt>
<pdfrwt beam="1">  1        2 0.19352199E+00 0.66536541E+03</pdfrwt>
<pdfrwt beam="2">  1       -2 0.13536407E-01 0.66536541E+03</pdfrwt>
<totfact> 0.82893152E+02</totfact>
</mgrwt>
<rwgt>
<wgt id='morphing_basis_vector_1'> +2.2125390e-04 </wgt>
<wgt id='morphing_basis_vector_2'> +1.2932213e-04 </wgt>
<wgt id='morphing_basis_vector_3'> +1.8414500e-04 </wgt>
<wgt id='morphing_basis_vector_4'> +8.8139797e-05 </wgt>
<wgt id='morphing_basis_vector_5'> +1.3617994e-04 </wgt>
</rwgt>
</event>
<event>
 4      1 +5.9529000e-06 6.35972000e+02 7.81860800e-03 9.13837300e-02
        2 -1    0    0  501    0 +0.0000000000e+00 +0.0000000000e+00 +4.9469060045e+02 4.9469060045e+02 0.0000000000e+00 0.0000e+00 -1.0000e+00
       -2 -1    0    0    0  501 -0.0000000000e+00 -0.0000000000e+00 -2.0440067212e+02 2.0440067212e+02 0.0000000000e+00 0.0000e+00 1.0000e+00
      -13  1    1    2    0    0 +3.1283689503e+02 +5.4387952810e+01 +1.6386832993e+02 3.5732030709e+02 0.0000000000e+00 0.0000e+00 1.0000e+00
       13  1    1    2    0    0 -3.1283689503e+02 -5.4387952810e+01 +1.2642159840e+02 3.4177096548e+02 0.0000000000e+00 0.0000e+00 -1.0000e+00
<mgrwt>
<rscale>  0 0.63597198E+03</rscale>
<asrwt>0</asrwt>
<pdfrwt beam="1">  1        2 0.76106246E-01 0.63597198E+03</pdfrwt>
<pdfrwt beam="2">  1       -2 0.31446257E-01 0.63597198E+03</pdfrwt>
<totfact> 0.68608776E+02</totfact>
</mgrwt>
<rwgt>
<wgt id='morphing_basis_vector_1'> +1.9778033e-04 </wgt>
<wgt id='morphing_basis_vector_2'> +1.3358533e-04 </wgt>
<wgt id='morphing_basis_vector_3'> +1.5611385e-04 </wgt>
<wgt id='morphing_basis_vector_4'> +6.4437443e-05 </wgt>
<wgt id='morphing_basis_vector_5'> +1.0898310e-04 </wgt>
</rwgt>
</event>
<event>
 4      1 +5.9529000e-06 7.00577700e+02 7.81860800e-03 9.03731300e-02
        2 -1    0    0  501    0 +0.0000000000e+00 +0.0000000000e+00 +8.4204970951e+02 8.4204970951e+02 0.0000000000e+00 0.0000e+00 1.0000e+00
       -2 -1    0    0    0  501 -0.0000000000e+00 -0.0000000000e+00 -1.4571856262e+02 1.4571856262e+02 0.0000000000e+00 0.0000e+00 -1.0000e+00
      -13  1    1    2    0    0 +9.5654831377e+01 +1.1611473512e+02 -9.7850260389e+01 1.7946351144e+02 0.0000000000e+00 0.0000e+00 -1.0000e+00
       13  1    1    2    0    0 -9.5654831377e+01 -1.1611473512e+02 +7.9418140728e+02 8.0830476069e+02 0.0000000000e+00 0.0000e+00 1.0000e+00
<mgrwt>
<rscale>  0 0.70057769E+03</rscale>
<asrwt>0</asrwt>
<pdfrwt beam="1">  1        2 0.12954611E+00 0.70057769E+03</pdfrwt>
<pdfrwt beam="2">  1       -2 0.22418241E-01 0.70057769E+03</pdfrwt>
<totfact> 0.64830288E+02</totfact>
</mgrwt>
<rwgt>
<wgt id='morphing_basis_vector_1'> +2.6321067e-04 </wgt>
<wgt id='morphing_basis_vector_2'> +1.5444167e-04 </wgt>
<wgt id='morphing_basis_vector_3'> +2.2435696e-04 </wgt>
<wgt id='morphing_basis_vector_4'> +1.1266240e-04 </wgt>
<wgt id='morphing_basis_vector_5'> +1.7459747e-04 </wgt>
</rwgt>
</event>
<event>
 4      1 +5.9529000e-06 6.60959900e+02 7.81860800e-03 9.09785700e-02
        2 -1    0    0  501    0 +0.0000000000e+00 +0.0000000000e+00 +1.9753303842e+03 1.9753303842e+03 0.0000000000e+00 0.0000e+00 1.0000e+00
       -2 -1    0    0    0  501 -0.0000000000e+00 -0.0000000000e+00 -5.5290497196e+01 5.5290497196e+01 0.0000000000e+00 0.0000e+00 -1.0000e+00
      -13  1    1    2    0    0 +1.1657568328e+01 -3.2568582850e+02 +1.1285686910e+03 1.1746805728e+03 0.0000000000e+00 0.0000e+00 -1.0000e+00
       13  1    1    2    0    0 -1.1657568328e+01 +3.2568582850e+02 +7.9147119595e+02 8.5594030856e+02 0.0000000000e+00 0.0000e+00 1.0000e+00
<mgrwt>
<rscale>  0 0.66095991E+03</rscale>
<asrwt>0</asrwt>
<pdfrwt beam="1">  1        2 0.30389693E+00 0.66095991E+03</pdfrwt>
<pdfrwt beam="2">  1       -2 0.85062318E-02 0.66095991E+03</pdfrwt>
<totfact> 0.69478590E+02</totfact>
</mgrwt>
<rwgt>
<wgt id='morphing_basis_vector_1'> +2.2934262e-04 </wgt>
<wgt id='morphing_basis_vector_2'> +1.6640981e-04 </wgt>
<wgt id='morphing_basis_vector_3'> +1.8252168e-04 </wgt>
<wgt id='morphing_basis_vector_4'> +7.3067446e-05 </wgt>
<wgt id='morphing_basis_vector_5'> +1.3163999e-04 </wgt>
</rwgt>
</event>
<event>
 4      1 +5.9529000e-06 6.40576500e+02 7.81860800e-03 9.13076200e-02
        2 -1    0    0  501    0 +0.0000000000e+00 +0.0000000000e+00 +8.8484313836e+01 8.8484313836e+01 0.0000000000e+00 0.0000e+00 -1.0000e+00
       -2 -1    0    0    0  501 -0.0000000000e+00 -0.0000000000e+00 -1.1593530400e+03 1.1593530400e+03 0.0000000000e+00 0.0000e+00 1.0000e+00
      -13  1    1    2    0    0 -7.4550342886e+01 +3.1132372451e+02 -5.5533280197e+02 6.4099511387e+02 0.0000000000e+00 0.0000e+00 1.0000e+00
       13  1    1    2    0    0 +7.4550342886e+01 -3.1132372451e+02 -5.1553592421e+02 6.0684223997e+02 0.0000000000e+00 0.0000e+00 -1.0000e+00
<mgrwt>
<rscale>  0 0.64057648E+03</rscale>
<asrwt>0</asrwt>
<pdfrwt beam="1">  1        2 0.13612972E-01 0.64057648E+03</pdfrwt>
<pdfrwt beam="2">  1       -2 0.17836199E+00 0.64057648E+03</pdfrwt>
<totfact> 0.99531732E+01</totfact>
</mgrwt>
<rwgt>
<wgt id='morphing_basis_vector_1'> +2.0044334e-04 </wgt>
<wgt id='morphing_basis_vector_2'> +1.3037142e-04 </wgt>
<wgt id='morphing_basis_vector_3'> +1.6022220e-04 </wgt>
<wgt id='morphing_basis_vector_4'> +6.8579603e-05 </wgt>
<wgt id='morphing_basis_vector_5'> +1.1296361e-04 </wgt>
</rwgt>
</event>
<event>
 4      1 +5.9529000e-06 6.96299100e+02 7.81860800e-03 9.04364800e-02
        2 -1    0    0  501    0 +0.0000000000e+00 +0.0000000000e+00 +1.0628861162e+03 1.0628861162e+03 0.0000000000e+00 0.0000e+00 1.0000e+00
       -2 -1    0    0    0  501 -0.0000000000e+00 -0.0000000000e+00 -1.1403678250e+02 1.1403678250e+02 0.0000000000e+00 0.0000e+00 -1.0000e+00
      -13  1    1    2    0    0 -1.5517027600e+01 -2.2327266068e+02 +2.3672493953e+01 2.2505965015e+02 0.0000000000e+00 0.0000e+00 -1.0000e+00
       13  1    1    2    0    0 +1.5517027600e+01 +2.2327266068e+02 +9.2517683973e+02 9.5186324854e+02 0.0000000000e+00 0.0000e+00 1.0000e+00
<mgrwt>
<rscale>  0 0.69629911E+03</rscale>
<asrwt>0</asrwt>
<pdfrwt beam="1">  1        2 0.16352093E+00 0.69629911E+03</pdfrwt>
<pdfrwt beam="2">  1       -2 0.17544121E-01 0.69629911E+03</pdfrwt>
<totfact> 0.70670308E+02</totfact>
</mgrwt>
<rwgt>
<wgt id='morphing_basis_vector_1'> +2.5789966e-04 </wgt>
<wgt id='morphing_basis_vector_2'> +1.5150357e-04 </wgt>
<wgt id='morphing_basis_vector_3'> +2.1917603e-04 </wgt>
<wgt id='morphing_basis_vector_4'> +1.0934070e-04 </wgt>
<wgt id='morphing_basis_vector_5'> +1.6956131e-04 </wgt>
</rwgt>
</event>
<event>
 4      1 +5.9529000e-06 7.37623500e+02 7.81860800e-03 8.98435800e-02
        2 -1    0    0  501    0 +0.0000000000e+00 +0.0000000000e+00 +2.1288073925e+03 2.1288073925e+03 0.0000000000e+00 0.0000e+00 -1.0000e+00
       -2 -1    0    0    0  501 -0.0000000000e+00 -0.0000000000e+00 -6.3895923024e+01 6.3895923024e+01 0.0000000000e+00 0.0000e+00 1.0000e+00
      -13  1    1    2    0    0 -1.8403548423e+02 +2.4221315926e+02 +4.1255943065e+02 5.1258322035e+02 0.0000000000e+00 0.0000e+00 1.0000e+00
       13  1    1    2    0    0 +1.8403548423e+02 -2.4221315926e+02 +1.6523520388e+03 1.6801200952e+03 0.0000000000e+00 0.0000e+00 -1.0000e+00
<mgrwt>
<rscale>  0 0.73762352E+03</rscale>
<asrwt>0</asrwt>
<pdfrwt beam="1">  1        2 0.32750877E+00 0.73762352E+03</pdfrwt>
<pdfrwt beam="2">  1       -2 0.98301437E-02 0.73762352E+03</pdfrwt>
<totfact> 0.45315447E+02</totfact>
</mgrwt>
<rwgt>
<wgt id='morphing_basis_vector_1'> +3.1529746e-04 </wgt>
<wgt id='morphing_basis_vector_2'> +1.8917362e-04 </wgt>
<wgt id='morphing_basis_vector_3'> +2.7419366e-04 </wgt>
<wgt id='morphing_basis_vector_4'> +1.4192027e-04 </wgt>
<wgt id='morphing_basis_vector_5'> +2.2267588e-04 </wgt>
</rwgt>
</event>
<event>
 4      1 +5.9529000e-06 7.04929000e+02 7.81860800e-03 9.03091800e-02
        2 -1    0    0  501    0 +0.0000000000e+00 +0.0000000000e+00 +1.9225518747e+03 1.9225518747e+03 0.0000000000e+00 0.0000e+00 1.0000e+00
       -2 -1    0    0    0  501 -0.0000000000e+00 -0.0000000000e+00 -6.4617887288e+01 6.4617887288e+01 0.0000000000e+00 0.0000e+00 -1.0000e+00
      -13  1    1    2    0    0 +2.6901960317e+02 -2.1019043367e+02 +6.8193057325e+02 7.6261449765e+02 0.0000000000e+00 0.0000e+00 -1.0000e+00
       13  1    1    2    0    0 -2.6901960317e+02 +2.1019043367e+02 +1.1760034142e+03 1.2245552644e+03 0.0000000000e+00 0.0000e+00 1.0000e+00
<mgrwt>
<rscale>  0 0.70492905E+03</rscale>
<asrwt>0</asrwt>
<pdfrwt beam="1">  1        2 0.29577717E+00 0.70492905E+03</pdfrwt>
<pdfrwt beam="2">  1       -2 0.99412149E-02 0.70492905E+03</pdfrwt>
<totfact> 0.58036944E+02</totfact>
</mgrwt>
<rwgt>
<wgt id='morphing_basis_vector_1'> +2.7243120e-04 </wgt>
<wgt id='morphing_basis_vector_2'> +1.6897214e-04 </wgt>
<wgt id='morphing_basis_vector_3'> +2.3107146e-04 </wgt>
<wgt id='morphing_basis_vector_4'> +1.1215029e-04 </wgt>
<wgt id='morphing_basis_vector_5'> +1.7972052e-04 </wgt>
</rwgt>
</event>
<event>
 4      1 +5.9529000e-06 6.66596400e+02 7.81860800e-03 9.08897600e-02
        2 -1    0    0  501    0 +0.0000000000e+00 +0.0000000000e+00 +4.5752700074e+02 4.5752700074e+02 0.0000000000e+00 0.0000e+00 -1.0000e+00
       -2 -1    0    0    0  501 -0.0000000000e+00 -0.0000000000e+00 -2.4280032316e+02 2.4280032316e+02 0.0000000000e+00 0.0000e+00 1.0000e+00
      -13  1    1    2    0    0 -1.4376301537e+02 +2.9193345442e+02 +1.8308510044e+02 3.7338063742e+02 0.0000000000e+00 0.0000e+00 1.0000e+00
       13  1    1    2    0    0 +1.4376301537e+02 -2.9193345442e+02 +3.1641577139e+01 3.2694668648e+02 0.0000000000e+00 0.0000e+00 -1.0000e+00
<mgrwt>
<rscale>  0 0.66659644E+03</rscale>
<asrwt>0</asrwt>
<pdfrwt beam="1">  1        2 0.70388769E-01 0.66659644E+03</pdfrwt>
<pdfrwt beam="2">  1       -2 0.37353896E-01 0.66659644E+03</pdfrwt>
<totfact> 0.54942758E+02</totfact>
</mgrwt>
<rwgt>
<wgt id='morphing_basis_vector_1'> +2.3855566e-04 </wgt>
<wgt id='morphing_basis_vector_2'> +1.7935391e-04 </wgt>
<wgt id='morphing_basis_vector_3'> +1.8941329e-04 </wgt>
<wgt id='morphing_basis_vector_4'> +7.3529858e-05 </wgt>
<wgt id='morphing_basis_vector_5'> +1.3713877e-04 </wgt>
</rwgt>
</event>
<event>
 4      1 +5.9529000e-06 7.40477600e+02 7.81860800e-03 8.98041500e-02
        2 -1    0    0  501    0 +0.0000000000e+00 +0.0000000000e+00 +1.9639327916e+02 1.9639327916e+02 0.0000000000e+00 0.0000e+00 -1.0000e+00
       -2 -1    0    0    0  501 -0.0000000000e+00 -0.0000000000e+00 -6.9797084722e+02 6.9797084722e+02 0.0000000000e+00 0.0000e+00 1.0000e+00
      -13  1    1    2    0    0 -3.5300492659e+02 +4.7347719684e+01 -3.7290714159e+02 5.1566851853e+02 0.0000000000e+00 0.0000e+00 1.0000e+00
       13  1    1    2    0    0 +3.5300492659e+02 -4.7347719684e+01 -1.2867042646e+02 3.7869560785e+02 0.0000000000e+00 0.0000e+00 -1.0000e+00
<mgrwt>
<rscale>  0 0.74047764E+03</rscale>
<asrwt>0</asrwt>
<pdfrwt beam="1">  1        2 0.30214351E-01 0.74047764E+03</pdfrwt>
<pdfrwt beam="2">  1       -2 0.10738013E+00 0.74047764E+03</pdfrwt>
<totfact> 0.15443571E+02</totfact>
</mgrwt>
<rwgt>
<wgt id='morphing_basis_vector_1'> +3.2249554e-04 </wgt>
<wgt id='morphing_basis_vector_2'> +2.0090801e-04 </wgt>
<wgt id='morphing_basis_vector_3'> +2.7967946e-04 </wgt>
<wgt id='morphing_basis_vector_4'> +1.4109327e-04 </wgt>
<wgt id='morphing_basis_vector_5'> +2.2662032e-04 </wgt>
</rwgt>
</event>
<event>
 4      1 +5.9529000e-06 6.28091800e+02 7.81860800e-03 9.15155600e-02
        2 -1    0    0  501    0 +0.0000000000e+00 +0.0000000000e+00 +1.0468152169e+03 1.0468152169e+03 0.0000000000e+00 0.0000e+00 -1.0000e+00
       -2 -1    0    0    0  501 -0.0000000000e+00 -0.0000000000e+00 -9.4214165823e+01 9.4214165823e+01 0.0000000000e+00 0.0000e+00 1.0000e+00
      -13  1    1    2    0    0 -3.0472923297e+02 -3.3648561179e+01 +3.5265158551e+02 4.6728500068e+02 0.0000000000e+00 0.0000e+00 1.0000e+00
       13  1    1    2    0    0 +3.0472923297e+02 +3.3648561179e+01 +5.9994946552e+02 6.7374438200e+02 0.0000000000e+00 0.0000e+00 -1.0000e+00
<mgrwt>
<rscale>  0 0.62809178E+03</rscale>
<asrwt>0</asrwt>
<pdfrwt beam="1">  1        2 0.16104849E+00 0.62809178E+03</pdfrwt>
<pdfrwt beam="2">  1       -2 0.14494488E-01 0.62809178E+03</pdfrwt>
<totfact> 0.98775901E+02</totfact>
</mgrwt>
<rwgt>
<wgt id='morphing_basis_vector_1'> +1.8493521e-04 </wgt>
<wgt id='morphing_basis_vector_2'> +1.1293566e-04 </wgt>
<wgt id='morphing_basis_vector_3'> +1.4811755e-04 </wgt>
<wgt id='morphing_basis_vector_4'> +6.4899657e-05 </wgt>
<wgt id='morphing_basis_vector_5'> +1.0245285e-04 </wgt>
</rwgt>
</event>
<event>
 4      1 +5.9529000e-06 6.21702700e+02 7.81860800e-03 9.16239600e-02
        2 -1    0    0  501    0 +0.0000000000e+00 +0.0000000000e+00 +1.0856412727e+02 1.0856412727e+02 0.0000000000e+00 0.0000e+00 1.0000e+00
       -2 -1    0    0    0  501 -0.0000000000e+00 -0.0000000000e+00 -8.9005967112e+02 8.9005967112e+02 0.0000000000e+00 0.0000e+00 -1.0000e+00
      -13  1    1    2    0    0 +2.8727974861e+01 -2.7919414299e+02 -1.7612018006e+02 3.3135024346e+02 0.0000000000e+00 0.0000e+00 1.0000e+00
       13  1    1    2    0    0 -2.8727974861e+01 +2.7919414299e+02 -6.0537536379e+02 6.6727355493e+02 0.0000000000e+00 0.0000e+00 -1.0000e+00
<mgrwt>
<rscale>  0 0.62170267E+03</rscale>
<asrwt>0</asrwt>
<pdfrwt beam="1">  1        2 0.16702173E-01 0.62170267E+03</pdfrwt>
<pdfrwt beam="2">  1       -2 0.13693226E+00 0.62170267E+03</pdfrwt>
<totfact> 0.16688929E+02</totfact>
</mgrwt>
<rwgt>
<wgt id='morphing_basis_vector_1'> +2.0140831e-04 </wgt>
<wgt id='morphing_basis_vector_2'> +1.7900987e-04 </wgt>
<wgt id='morphing_basis_vector_3'> +1.4467408e-04 </wgt>
<wgt id='morphing_basis_vector_4'> +4.2841001e-05 </wgt>
<wgt id='morphing_basis_vector_5'> +9.7280767e-05 </wgt>
</rwgt>
</event>
<event>
 4      1 +5.9529000e-06 6.47606700e+02 7.81860800e-03 9.11926900e-02
        2 -1    0    0  501    0 +0.0000000000e+00 +0.0000000000e+00 +1.6134898289e+02 1.6134898289e+02 0.0000000000e+00 0.0000e+00 -1.0000e+00
       -2 -1    0    0    0  501 -0.0000000000e+00 -0.0000000000e+00 -6.4982510012e+02 6.4982510012e+02 0.0000000000e+00 0.0000e+00 1.0000e+00
      -13  1    1    2    0    0 -2.7620716158e+02 -6.5327536414e+01 -4.3945668889e+02 5.2314459237e+02 0.0000000000e+00 0.0000e+00 1.0000e+00
       13  1    1    2    0    0 +2.7620716158e+02 +6.5327536414e+01 -4.9019428333e+01 2.8802949064e+02 0.0000000000e+00 0.0000e+00 -1.0000e+00
<mgrwt>
<rscale>  0 0.64760673E+03</rscale>
<asrwt>0</asrwt>
<pdfrwt beam="1">  1        2 0.24822920E-01 0.64760673E+03</pdfrwt>
<pdfrwt beam="2">  1       -2 0.99973094E-01 0.64760673E+03</pdfrwt>
<totfact> 0.23229837E+02</totfact>
</mgrwt>
<rwgt>
<wgt id='morphing_basis_vector_1'> +2.0263549e-04 </wgt>
<wgt id='morphing_basis_vector_2'> +1.1925513e-04 </wgt>
<wgt id='morphing_basis_vector_3'> +1.6617223e-04 </wgt>
<wgt id='morphing_basis_vector_4'> +7.6998030e-05 </wgt>
<wgt id='morphing_basis_vector_5'> +1.1926976e-04 </wgt>
</rwgt>
</event>
<event>
 4      1 +5.9529000e-06 6.89857200e+02 7.81860800e-03 9.05327600e-02
        2 -1    0    0  501    0 +0.0000000000e+00 +0.0000000000e+00 +2.4151507105e+02 2.4151507105e+02 0.0000000000e+00 0.0000e+00 -1.0000e+00
       -2 -1    0    0    0  501 -0.0000000000e+00 -0.0000000000e+00 -4.9262245991e+02 4.9262245991e+02 0.0000000000e+00 0.0000e+00 1.0000e+00
      -13  1    1    2    0    0 -2.5388986985e+02 +1.9161866216e+02 -2.6752594023e+02 4.1562953023e+02 0.0000000000e+00 0.0000e+00 1.0000e+00
       13  1    1    2    0    0 +2.5388986985e+02 -1.9161866216e+02 +1.6418551366e+01 3.1850800073e+02 0.0000000000e+00 0.0000e+00 -1.0000e+00
<mgrwt>
<rscale>  0 0.68985723E+03</rscale>
<asrwt>0</asrwt>
<pdfrwt beam="1">  1        2 0.37156165E-01 0.68985723E+03</pdfrwt>
<pdfrwt beam="2">  1       -2 0.75788070E-01 0.68985723E+03</pdfrwt>
<totfact> 0.27566374E+02</totfact>
</mgrwt>
<rwgt>
<wgt id='morphing_basis_vector_1'> +2.5151131e-04 </wgt>
<wgt id='morphing_basis_vector_2'> +1.5162885e-04 </wgt>
<wgt id='morphing_basis_vector_3'> +2.1200642e-04 </wgt>
<wgt id='morphing_basis_vector_4'> +1.0299169e-04 </wgt>
<wgt id='morphing_basis_vector_5'> +1.6213987e-04 </wgt>
</rwgt>
</event>
<event>
 4      1 +5.9529000e-06 7.37162500e+02 7.81860800e-03 8.98499700e-02
        2 -1    0    0  501    0 +0.0000000000e+00 +0.0000000000e+00 +8.9767676061e+02 8.9767676061e+02 0.0000000000e+00 0.0000e+00 1.0000e+00
       -2 -1    0    0    0  501 -0.0000000000e+00 -0.0000000000e+00 -1.5133749063e+02 1.5133749063e+02 0.0000000000e+00 0.0000e+00 -1.0000e+00
      -13  1    1    2    0    0 -8.8427348838e+01 +1.1343272351e+02 -1.0975553824e+02 1.8092168736e+02 0.0000000000e+00 0.0000e+00 -1.0000e+00
       13  1    1    2    0    0 +8.8427348838e+01 -1.1343272351e+02 +8.5609480822e+02 8.6809256387e+02 0.0000000000e+00 0.0000e+00 1.0000e+00
<mgrwt>
<rscale>  0 0.73716253E+03</rscale>
<asrwt>0</asrwt>
<pdfrwt beam="1">  1        2 0.13810411E+00 0.73716253E+03</pdfrwt>
<pdfrwt beam="2">  1       -2 0.23282691E-01 0.73716253E+03</pdfrwt>
<totfact> 0.55807255E+02</totfact>
</mgrwt>
<rwgt>
<wgt id='morphing_basis_vector_1'> +3.1370822e-04 </wgt>
<wgt id='morphing_basis_vector_2'> +1.8595601e-04 </wgt>
<wgt id='morphing_basis_vector_3'> +2.7312263e-04 </wgt>
<wgt id='morphing_basis_vector_4'> +1.4254329e-04 </wgt>
<wgt id='morphing_basis_vector_5'> +2.2205955e-04 </wgt>
</rwgt>
</event>
<event>
 4      1 +5.9529000e-06 7.49703900e+02 7.81860800e-03 8.96779800e-02
        2 -1    0    0  501    0 +0.0000000000e+00 +0.0000000000e+00 +5.4352407990e+02 5.4352407990e+02 0.0000000000e+00 0.0000e+00 -1.0000e+00
       -2 -1    0    0    0  501 -0.0000000000e+00 -0.0000000000e+00 -2.5852394094e+02 2.5852394094e+02 0.0000000000e+00 0.0000e+00 1.0000e+00
      -13  1    1    2    0    0 +1.2661666103e+02 +3.1560295087e+02 -2.6236600989e+01 3.4106503879e+02 0.0000000000e+00 0.0000e+00 1.0000e+00
       13  1    1    2    0    0 -1.2661666103e+02 -3.1560295087e+02 +3.1123673994e+02 4.6098298205e+02 0.0000000000e+00 0.0000e+00 -1.0000e+00
<mgrwt>
<rscale>  0 0.74970391E+03</rscale>
<asrwt>0</asrwt>
<pdfrwt beam="1">  1        2 0.83619089E-01 0.74970391E+03</pdfrwt>
<pdfrwt beam="2">  1       -2 0.39772914E-01 0.74970391E+03</pdfrwt>
<totfact> 0.40090872E+02</totfact>
</mgrwt>
<rwgt>
<wgt id='morphing_basis_vector_1'> +3.3475748e-04 </wgt>
<wgt id='morphing_basis_vector_2'> +2.0425416e-04 </wgt>
<wgt id='morphing_basis_vector_3'> +2.9259079e-04 </wgt>
<wgt id='morphing_basis_vector_4'> +1.5157061e-04 </wgt>
<wgt id='morphing_basis_vector_5'> +2.4016812e-04 </wgt>
</rwgt>
</event>
<event>
 4      1 +5.9529000e-06 6.69531300e+02 7.81860800e-03 9.08438900e-02
        2 -1    0    0  501    0 +0.0000000000e+00 +0.0000000000e+00 +2.0808694398e+02 2.0808694398e+02 0.0000000000e+00 0.0000e+00 -1.0000e+00
       -2 -1    0    0    0  501 -0.0000000000e+00 -0.0000000000e+00 -5.3856355142e+02 5.3856355142e+02 0.0000000000e+00 0.0000e+00 1.0000e+00
      -13  1    1    2    0    0 +8.4526702695e+01 -1.5596352590e+02 -4.8183791257e+02 5.1345609244e+02 0.0000000000e+00 0.0000e+00 1.0000e+00
       13  1    1    2    0    0 -8.4526702695e+01 +1.5596352590e+02 +1.5136130513e+02 2.3319440295e+02 0.0000000000e+00 0.0000e+00 -1.0000e+00
<mgrwt>
<rscale>  0 0.66953131E+03</rscale>
<asrwt>0</asrwt>
<pdfrwt beam="1">  1        2 0.32013376E-01 0.66953131E+03</pdfrwt>
<pdfrwt beam="2">  1       -2 0.82855931E-01 0.66953131E+03</pdfrwt>
<totfact> 0.26774293E+02</totfact>
</mgrwt>
<rwgt>
<wgt id='morphing_basis_vector_1'> +2.2564134e-04 </wgt>
<wgt id='morphing_basis_vector_2'> +1.3125027e-04 </wgt>
<wgt id='morphing_basis_vector_3'> +1.8851764e-04 </wgt>
<wgt id='morphing_basis_vector_4'> +9.1085948e-05 </wgt>
<wgt id='morphing_basis_vector_5'> +1.4038266e-04 </wgt>
</rwgt>
</event>
<event>
 4      1 +5.9529000e-06 6.41708300e+02 7.81860800e-03 9.12890100e-02
        2 -1    0    0  501    0 +0.0000000000e+00 +0.0000000000e+00 +9.8887799281e+02 9.8887799281e+02 0.0000000000e+00 0.0000e+00 1.0000e+00
       -2 -1    0    0    0  501 -0.0000000000e+00 -0.0000000000e+00 -1.0410523263e+02 1.0410523263e+02 0.0000000000e+00 0.0000e+00 -1.0000e+00
      -13  1    1    2    0    0 -7.7317593589e+01 -2.3144059525e+02 +8.7537192606e+01 2.5924027368e+02 0.0000000000e+00 0.0000e+00 -1.0000e+00
       13  1    1    2    0    0 +7.7317593589e+01 +2.3144059525e+02 +7.9723556757e+02 8.3374295176e+02 0.0000000000e+00 0.0000e+00 1.0000e+00
<mgrwt>
<rscale>  0 0.64170826E+03</rscale>
<asrwt>0</asrwt>
<pdfrwt beam="1">  1        2 0.15213507E+00 0.64170826E+03</pdfrwt>
<pdfrwt beam="2">  1       -2 0.16016190E-01 0.64170826E+03</pdfrwt>
<totfact> 0.91155581E+02</totfact>
</mgrwt>
<rwgt>
<wgt id='morphing_basis_vector_1'> +1.9597606e-04 </wgt>
<wgt id='morphing_basis_vector_2'> +1.1370276e-04 </wgt>
<wgt id='morphing_basis_vector_3'> +1.6037381e-04 </wgt>
<wgt id='morphing_basis_vector_4'> +7.4224202e-05 </wgt>
<wgt id='morphing_basis_vector_5'> +1.1400501e-04 </wgt>
</rwgt>
</event>
<event>
 4      1 +5.9529000e-06 6.21545900e+02 7.81860800e-03 9.16266400e-02
        2 -1    0    0  501    0 +0.0000000000e+00 +0.0000000000e+00 +8.1715105664e+02 8.1715105664e+02 0.0000000000e+00 0.0000e+00 -1.0000e+00
       -2 -1    0    0    0  501 -0.0000000000e+00 -0.0000000000e+00 -1.1819091554e+02 1.1819091554e+02 0.0000000000e+00 0.0000e+00 1.0000e+00
      -13  1    1    2    0    0 +4.6818689250e+01 +3.0668308246e+02 +3.2200532866e+02 4.4713972583e+02 0.0000000000e+00 0.0000e+00 1.0000e+00
       13  1    1    2    0    0 -4.6818689250e+01 -3.0668308246e+02 +3.7695481243e+02 4.8820224635e+02 0.0000000000e+00 0.0000e+00 -1.0000e+00
<mgrwt>
<rscale>  0 0.62154592E+03</rscale>
<asrwt>0</asrwt>
<pdfrwt beam="1">  1        2 0.12571554E+00 0.62154592E+03</pdfrwt>
<pdfrwt beam="2">  1       -2 0.18183218E-01 0.62154592E+03</pdfrwt>
<totfact> 0.95734715E+02</totfact>
</mgrwt>
<rwgt>
<wgt id='morphing_basis_vector_1'> +1.8085776e-04 </wgt>
<wgt id='morphing_basis_vector_2'> +1.1572309e-04 </wgt>
<wgt id='morphing_basis_vector_3'> +1.4251826e-04 </wgt>
<wgt id='morphing_basis_vector_4'> +5.9872424e-05 </wgt>
<wgt id='morphing_basis_vector_5'> +9.7207595e-05 </wgt>
</rwgt>
</event>
<event>
 4      1 +5.9529000e-06 7.17403200e+02 7.81860800e-03 9.01284800e-02
        2 -1    0    0  501    0 +0.0000000000e+00 +0.0000000000e+00 +3.9981774963e+02 3.9981774963e+02 0.0000000000e+00 0.0000e+00 -1.0000e+00
       -2 -1    0    0    0  501 -0.0000000000e+00 -0.0000000000e+00 -3.2181374259e+02 3.2181374259e+02 0.0000000000e+00 0.0000e+00 1.0000e+00
      -13  1    1    2    0    0 -2.5790712848e+02 +1.8019839895e+02 +2.1229417935e+02 3.7954758396e+02 0.0000000000e+00 0.0000e+00 1.0000e+00
       13  1    1    2    0    0 +2.5790712848e+02 -1.8019839895e+02 -1.3429017231e+02 3.4208390825e+02 0.0000000000e+00 0.0000e+00 -1.0000e+00
<mgrwt>
<rscale>  0 0.71740322E+03</rscale>
<asrwt>0</asrwt>
<pdfrwt beam="1">  1        2 0.61510423E-01 0.71740322E+03</pdfrwt>
<pdfrwt beam="2">  1       -2 0.49509807E-01 0.71740322E+03</pdfrwt>
<totfact> 0.37515349E+02</totfact>
</mgrwt>
<rwgt>
<wgt id='morphing_basis_vector_1'> +3.3350331e-04 </wgt>
<wgt id='morphing_basis_vector_2'> +3.1595501e-04 </wgt>
<wgt id='morphing_basis_vector_3'> +2.6489584e-04 </wgt>
<wgt id='morphing_basis_vector_4'> +7.3401818e-05 </wgt>
<wgt id='morphing_basis_vector_5'> +1.9387067e-04 </wgt>
</rwgt>
</event>
<event>
 4      1 +5.9529000e-06 6.24967700e+02 7.81860800e-03 9.15684000e-02
        2 -1    0    0  501    0 +0.0000000000e+00 +0.0000000000e+00 +6.7584539999e+02 6.7584539999e+02 0.0000000000e+00 0.0000e+00 -1.0000e+00
       -2 -1    0    0    0  501 -0.0000000000e+00 -0.0000000000e+00 -1.4448002796e+02 1.4448002796e+02 0.0000000000e+00 0.0000e+00 1.0000e+00
      -13  1    1    2    0    0 -1.8438175238e+02 -1.2440343197e+02 -2.2409757722e+01 2.2355098242e+02 0.0000000000e+00 0.0000e+00 1.0000e+00
       13  1    1    2    0    0 +1.8438175238e+02 +1.2440343197e+02 +5.5377512976e+02 5.9677444553e+02 0.0000000000e+00 0.0000e+00 -1.0000e+00
<mgrwt>
<rscale>  0 0.62496772E+03</rscale>
<asrwt>0</asrwt>
<pdfrwt beam="1">  1        2 0.10397621E+00 0.62496772E+03</pdfrwt>
<pdfrwt beam="2">  1       -2 0.22227697E-01 0.62496772E+03</pdfrwt>
<totfact> 0.86759569E+02</totfact>
</mgrwt>
<rwgt>
<wgt id='morphing_basis_vector_1'> +1.7942504e-04 </wgt>
<wgt id='morphing_basis_vector_2'> +1.0328050e-04 </wgt>
<wgt id='morphing_basis_vector_3'> +1.4504405e-04 </wgt>
<wgt id='morphing_basis_vector_4'> +6.5479850e-05 </wgt>
<wgt id='morphing_basis_vector_5'> +9.9936855e-05 </wgt>
</rwgt>
</event>
<event>
 4      1 +5.9529000e-06 7.29252800e+02 7.81860800e-03 8.99603300e-02
        2 -1    0    0  501    0 +0.0000000000e+00 +0.0000000000e+00 +1.0457331970e+03 1.0457331970e+03 0.0000000000e+00 0.0000e+00 -1.0000e+00
       -2 -1    0    0    0  501 -0.0000000000e+00 -0.0000000000e+00 -1.2713798780e+02 1.2713798780e+02 0.0000000000e+00 0.0000e+00 1.0000e+00
      -13  1    1    2    0    0 +2.9682034764e+02 -1.0245910712e+02 +1.6120606140e+02 3.5296966107e+02 0.0000000000e+00 0.0000e+00 1.0000e+00
       13  1    1    2    0    0 -2.9682034764e+02 +1.0245910712e+02 +7.5738914778e+02 8.1990152371e+02 0.0000000000e+00 0.0000e+00 -1.0000e+00
<mgrwt>
<rscale>  0 0.72925281E+03</rscale>
<asrwt>0</asrwt>
<pdfrwt beam="1">  1        2 0.16088203E+00 0.72925281E+03</pdfrwt>
<pdfrwt beam="2">  1       -2 0.19559691E-01 0.72925281E+03</pdfrwt>
<totfact> 0.60394307E+02</totfact>
</mgrwt>
<rwgt>
<wgt id='morphing_basis_vector_1'> +3.0339491e-04 </wgt>
<wgt id='morphing_basis_vector_2'> +1.8244776e-04 </wgt>
<wgt id='morphing_basis_vector_3'> +2.6246267e-04 </wgt>
<wgt id='morphing_basis_vector_4'> +1.3430035e-04 </wgt>
<wgt id='morphing_basis_vector_5'> +2.1106082e-04 </wgt>
</rwgt>
</event>
<event>
 4      1 +5.9529000e-06 7.06565200e+02 7.81860800e-03 9.02852500e-02
        2 -1    0    0  501    0 +0.0000000000e+00 +0.0000000000e+00 +7.7070766460e+02 7.7070766460e+02 0.0000000000e+00 0.0000e+00 -1.0000e+00
       -2 -1    0    0    0  501 -0.0000000000e+00 -0.0000000000e+00 -1.6194027681e+02 1.6194027681e+02 0.0000000000e+00 0.0000e+00 1.0000e+00
      -13  1    1    2    0    0 +9.5781489627e+01 -3.4003830318e+02 +3.0054187391e+02 4.6381629915e+02 0.0000000000e+00 0.0000e+00 1.0000e+00
       13  1    1    2    0    0 -9.5781489627e+01 +3.4003830318e+02 +3.0822551388e+02 4.6883164226e+02 0.0000000000e+00 0.0000e+00 -1.0000e+00
<mgrwt>
<rscale>  0 0.70656525E+03</rscale>
<asrwt>0</asrwt>
<pdfrwt beam="1">  1        2 0.11857041E+00 0.70656525E+03</pdfrwt>
<pdfrwt beam="2">  1       -2 0.24913889E-01 0.70656525E+03</pdfrwt>
<totfact> 0.60695991E+02</totfact>
</mgrwt>
<rwgt>
<wgt id='morphing_basis_vector_1'> +2.8011691e-04 </wgt>
<wgt id='morphing_basis_vector_2'> +1.8737267e-04 </wgt>
<wgt id='morphing_basis_vector_3'> +2.3518437e-04 </wgt>
<wgt id='morphing_basis_vector_4'> +1.0748095e-04 </wgt>
<wgt id='morphing_basis_vector_5'> +1.8155055e-04 </wgt>
</rwgt>
</event>
<event>
 4      1 +5.9529000e-06 7.12171500e+02 7.81860800e-03 9.02037900e-02
        2 -1    0    0  501    0 +0.0000000000e+00 +0.0000000000e+00 +1.6733185849e+03 1.6733185849e+03 0.0000000000e+00 0.0000e+00 -1.0000e+00
       -2 -1    0    0    0  501 -0.0000000000e+00 -0.0000000000e+00 -7.5775801823e+01 7.5775801823e+01 0.0000000000e+00 0.0000e+00 1.0000e+00
      -13  1    1    2    0    0 -1.1832148969e+02 +3.0866446937e+02 +1.1238863536e+03 1.1714923241e+03 0.0000000000e+00 0.0000e+00 1.0000e+00
       13  1    1    2    0    0 +1.1832148969e+02 -3.0866446937e+02 +4.7365642946e+02 5.7760206262e+02 0.0000000000e+00 0.0000e+00 -1.0000e+00
<mgrwt>
<rscale>  0 0.71217149E+03</rscale>
<asrwt>0</asrwt>
<pdfrwt beam="1">  1        2 0.25743360E+00 0.71217149E+03</pdfrwt>
<pdfrwt beam="2">  1       -2 0.11657817E-01 0.71217149E+03</pdfrwt>
<totfact> 0.61772745E+02</totfact>
</mgrwt>
<rwgt>
<wgt id='morphing_basis_vector_1'> +3.1236948e-04 </wgt>
<wgt id='morphing_basis_vector_2'> +2.6837097e-04 </wgt>
<wgt id='morphing_basis_vector_3'> +2.5199129e-04 </wgt>
<wgt id='morphing_basis_vector_4'> +8.4950296e-05 </wgt>
<wgt id='morphing_basis_vector_5'> +1.8772117e-04 </wgt>
</rwgt>
</event>
<event>
 4      1 +5.9529000e-06 7.42921900e+02 7.81860800e-03 8.97705400e-02
        2 -1    0    0  501    0 +0.0000000000e+00 +0.0000000000e+00 +4.7653692558e+02 4.7653692558e+02 0.0000000000e+00 0.0000e+00 -1.0000e+00
       -2 -1    0    0    0  501 -0.0000000000e+00 -0.0000000000e+00 -2.8955411066e+02 2.8955411066e+02 0.0000000000e+00 0.0000e+00 1.0000e+00
      -13  1    1    2    0    0 +6.8994503722e+01 +2.2096956951e+02 -2.0607748419e+02 3.0992857513e+02 0.0000000000e+00 0.0000e+00 1.0000e+00
       13  1    1    2    0    0 -6.8994503722e+01 -2.2096956951e+02 +3.9306029911e+02 4.5616246111e+02 0.0000000000e+00 0.0000e+00 -1.0000e+00
<mgrwt>
<rscale>  0 0.74292187E+03</rscale>
<asrwt>0</asrwt>
<pdfrwt beam="1">  1        2 0.73313373E-01 0.74292187E+03</pdfrwt>
<pdfrwt beam="2">  1       -2 0.44546786E-01 0.74292187E+03</pdfrwt>
<totfact> 0.37672043E+02</totfact>
</mgrwt>
<rwgt>
<wgt id='morphing_basis_vector_1'> +3.2247534e-04 </wgt>
<wgt id='morphing_basis_vector_2'> +1.9185871e-04 </wgt>
<wgt id='morphing_basis_vector_3'> +2.8156498e-04 </wgt>
<wgt id='morphing_basis_vector_4'> +1.4753137e-04 </wgt>
<wgt id='morphing_basis_vector_5'> +2.3028137e-04 </wgt>
</rwgt>
</event>
<event>
 4      1 +5.9529000e-06 7.01203100e+02 7.81860800e-03 9.03639000e-02
        2 -1    0    0  501    0 +0.0000000000e+00 +0.0000000000e+00 +2.5846984611e+02 2.5846984611e+02 0.0000000000e+00 0.0000e+00 1.0000e+00
       -2 -1    0    0    0  501 -0.0000000000e+00 -0.0000000000e+00 -4.7557363303e+02 4.7557363303e+02 0.0000000000e+00 0.0000e+00 -1.0000e+00
      -13  1    1    2    0    0 -1.2956238505e+02 -4.4811697366e+01 -4.4635179926e+02 4.6693086056e+02 0.0000000000e+00 0.0000e+00 -1.0000e+00
       13  1    1    2    0    0 +1.2956238505e+02 +4.4811697366e+01 +2.2924801234e+02 2.6711261858e+02 0.0000000000e+00 0.0000e+00 1.0000e+00
<mgrwt>
<rscale>  0 0.70120309E+03</rscale>
<asrwt>0</asrwt>
<pdfrwt beam="1">  1        2 0.39764592E-01 0.70120309E+03</pdfrwt>
<pdfrwt beam="2">  1       -2 0.73165174E-01 0.70120309E+03</pdfrwt>
<totfact> 0.27549123E+02</totfact>
</mgrwt>
<rwgt>
<wgt id='morphing_basis_vector_1'> +2.6400733e-04 </wgt>
<wgt id='morphing_basis_vector_2'> +1.5491539e-04 </wgt>
<wgt id='morphing_basis_vector_3'> +2.2512645e-04 </wgt>
<wgt id='morphing_basis_vector_4'> +1.1314029e-04 </wgt>
<wgt id='morphing_basis_vector_5'> +1.7534206e-04 </wgt>
</rwgt>
</event>
<event>
 4      1 +5.9529000e-06 7.47828900e+02 7.81860800e-03 8.97034600e-02
        2 -1    0    0  501    0 +0.0000000000e+00 +0.0000000000e+00 +7.4463586604e+02 7.4463586604e+02 0.0000000000e+00 0.0000e+00 -1.0000e+00
       -2 -1    0    0    0  501 -0.0000000000e+00 -0.0000000000e+00 -1.8775888795e+02 1.8775888795e+02 0.0000000000e+00 0.0000e+00 1.0000e+00
      -13  1    1    2    0    0 -1.3113883169e+01 -3.4975310334e+02 +1.1438661709e+02 3.6821665551e+02 0.0000000000e+00 0.0000e+00 1.0000e+00
       13  1    1    2    0    0 +1.3113883169e+01 +3.4975310334e+02 +4.4249036100e+02 5.6417809848e+02 0.0000000000e+00 0.0000e+00 -1.0000e+00
<mgrwt>
<rscale>  0 0.74782886E+03</rscale>
<asrwt>0</asrwt>
<pdfrwt beam="1">  1        2 0.11455936E+00 0.74782886E+03</pdfrwt>
<pdfrwt beam="2">  1       -2 0.28885983E-01 0.74782886E+03</pdfrwt>
<totfact> 0.48976270E+02</totfact>
</mgrwt>
<rwgt>
<wgt id='morphing_basis_vector_1'> +3.3262513e-04 </wgt>
<wgt id='morphing_basis_vector_2'> +2.0477184e-04 </wgt>
<wgt id='morphing_basis_vector_3'> +2.9012222e-04 </wgt>
<wgt id='morphing_basis_vector_4'> +1.4894528e-04 </wgt>
<wgt id='morphing_basis_vector_5'> +2.3735273e-04 </wgt>
</rwgt>
</event>
<event>
 4      1 +5.9529000e-06 7.19977600e+02 7.81860800e-03 9.00916600e-02
        2 -1    0    0  501    0 +0.0000000000e+00 +0.0000000000e+00 +9.4385812959e+02 9.4385812959e+02 0.0000000000e+00 0.0000e+00 -1.0000e+00
       -2 -1    0    0    0  501 -0.0000000000e+00 -0.0000000000e+00 -1.3730022198e+02 1.3730022198e+02 0.0000000000e+00 0.0000e+00 1.0000e+00
      -13  1    1    2    0    0 +1.6081935335e+02 -1.7776809779e+02 -1.4322247732e-02 2.3971725263e+02 0.0000000000e+00 0.0000e+00 1.0000e+00
       13  1    1    2    0    0 -1.6081935335e+02 +1.7776809779e+02 +8.0657222986e+02 8.4144109894e+02 0.0000000000e+00 0.0000e+00 -1.0000e+00
<mgrwt>
<rscale>  0 0.71997758E+03</rscale>
<asrwt>0</asrwt>
<pdfrwt beam="1">  1        2 0.14520894E+00 0.71997758E+03</pdfrwt>
<pdfrwt beam="2">  1       -2 0.21123112E-01 0.71997758E+03</pdfrwt>
<totfact> 0.61449050E+02</totfact>
</mgrwt>
<rwgt>
<wgt id='morphing_basis_vector_1'> +2.8932721e-04 </wgt>
<wgt id='morphing_basis_vector_2'> +1.7122821e-04 </wgt>
<wgt id='morphing_basis_vector_3'> +2.4938021e-04 </wgt>
<wgt id='morphing_basis_vector_4'> +1.2763952e-04 </wgt>
<wgt id='morphing_basis_vector_5'> +1.9874668e-04 </wgt>
</rwgt>
</event>
<event>
 4      1 +5.9529000e-06 6.83002300e+02 7.81860800e-03 9.06364200e-02
        2 -1    0    0  501    0 +0.0000000000e+00 +0.0000000000e+00 +5.6841003517e+02 5.6841003517e+02 0.0000000000e+00 0.0000e+00 -1.0000e+00
       -2 -1    0    0    0  501 -0.0000000000e+00 -0.0000000000e+00 -2.0517414262e+02 2.0517414262e+02 0.0000000000e+00 0.0000e+00 1.0000e+00
      -13  1    1    2    0    0 +1.6480637447e+02 +2.9676655853e+02 +2.2386813113e+02 4.0663063271e+02 0.0000000000e+00 0.0000e+00 1.0000e+00
       13  1    1    2    0    0 -1.6480637447e+02 -2.9676655853e+02 +1.3936776142e+02 3.6695354508e+02 0.0000000000e+00 0.0000e+00 -1.0000e+00
<mgrwt>
<rscale>  0 0.68300232E+03</rscale>
<asrwt>0</asrwt>
<pdfrwt beam="1">  1        2 0.87447697E-01 0.68300232E+03</pdfrwt>
<pdfrwt beam="2">  1       -2 0.31565253E-01 0.68300232E+03</pdfrwt>
<totfact> 0.58031739E+02</totfact>
</mgrwt>
<rwgt>
<wgt id='morphing_basis_vector_1'> +2.5364413e-04 </wgt>
<wgt id='morphing_basis_vector_2'> +1.7879141e-04 </wgt>
<wgt id='morphing_basis_vector_3'> +2.0714353e-04 </wgt>
<wgt id='morphing_basis_vector_4'> +8.7664233e-05 </wgt>
<wgt id='morphing_basis_vector_5'> +1.5430975e-04 </wgt>
</rwgt>
</event>
<event>
 4      1 +5.9529000e-06 6.24410200e+02 7.81860800e-03 9.15778600e-02
        2 -1    0    0  501    0 +0.0000000000e+00 +0.0000000000e+00 +6.6174499143e+02 6.6174499143e+02 0.0000000000e+00 0.0000e+00 -1.0000e+00
       -2 -1    0    0    0  501 -0.0000000000e+00 -0.0000000000e+00 -1.4729542919e+02 1.4729542919e+02 0.0000000000e+00 0.0000e+00 1.0000e+00
      -13  1    1    2    0    0 +1.9122719778e+02 -6.6762386924e+01 -5.0612005906e+01 2.0877411866e+02 0.0000000000e+00 0.0000e+00 1.0000e+00
       13  1    1    2    0    0 -1.9122719778e+02 +6.6762386924e+01 +5.6506156814e+02 6.0026630196e+02 0.0000000000e+00 0.0000e+00 -1.0000e+00
<mgrwt>
<rscale>  0 0.62441016E+03</rscale>
<asrwt>0</asrwt>
<pdfrwt beam="1">  1        2 0.10180692E+00 0.62441016E+03</pdfrwt>
<pdfrwt beam="2">  1       -2 0.22660836E-01 0.62441016E+03</pdfrwt>
<totfact> 0.86141907E+02</totfact>
</mgrwt>
<rwgt>
<wgt id='morphing_basis_vector_1'> +1.7881547e-04 </wgt>
<wgt id='morphing_basis_vector_2'> +1.0270467e-04 </wgt>
<wgt id='morphing_basis_vector_3'> +1.4454576e-04 </wgt>
<wgt id='morphing_basis_vector_4'> +6.5268337e-05 </wgt>
<wgt id='morphing_basis_vector_5'> +9.9490656e-05 </wgt>
</rwgt>
</event>
<event>
 4      1 +5.9529000e-06 6.97851300e+02 7.81860800e-03 9.04134400e-02
        2 -1    0    0  501    0 +0.0000000000e+00 +0.0000000000e+00 +1.9737735956e+02 1.9737735956e+02 0.0000000000e+00 0.0000e+00 -1.0000e+00
       -2 -1    0    0    0  501 -0.0000000000e+00 -0.0000000000e+00 -6.1683420954e+02 6.1683420954e+02 0.0000000000e+00 0.0000e+00 1.0000e+00
      -13  1    1    2    0    0 -2.4204796260e+02 +2.4375695026e+02 -1.3833341630e+02 3.7032526387e+02 0.0000000000e+00 0.0000e+00 1.0000e+00
       13  1    1    2    0    0 +2.4204796260e+02 -2.4375695026e+02 -2.8112343368e+02 4.4388630522e+02 0.0000000000e+00 0.0000e+00 -1.0000e+00
<mgrwt>
<rscale>  0 0.69785130E+03</rscale>
<asrwt>0</asrwt>
<pdfrwt beam="1">  1        2 0.30365748E-01 0.69785130E+03</pdfrwt>
<pdfrwt beam="2">  1       -2 0.94897570E-01 0.69785130E+03</pdfrwt>
<totfact> 0.20746194E+02</totfact>
</mgrwt>
<rwgt>
<wgt id='morphing_basis_vector_1'> +2.7636367e-04 </wgt>
<wgt id='morphing_basis_vector_2'> +2.0357750e-04 </wgt>
<wgt id='morphing_basis_vector_3'> +2.2671156e-04 </wgt>
<wgt id='morphing_basis_vector_4'> +9.3227134e-05 </wgt>
<wgt id='morphing_basis_vector_5'> +1.7093561e-04 </wgt>
</rwgt>
</event>
<event>
 4      1 +5.9529000e-06 6.41182900e+02 7.81860800e-03 9.12976400e-02
        2 -1    0    0  501    0 +0.0000000000e+00 +0.0000000000e+00 +3.3195521254e+02 3.3195521254e+02 0.0000000000e+00 0.0000e+00 -1.0000e+00
       -2 -1    0    0    0  501 -0.0000000000e+00 -0.0000000000e+00 -3.0961669216e+02 3.0961669216e+02 0.0000000000e+00 0.0000e+00 1.0000e+00
      -13  1    1    2    0    0 -2.7449393339e+02 +1.9990906394e+01 +1.7568409451e+02 3.2651409903e+02 0.0000000000e+00 0.0000e+00 1.0000e+00
       13  1    1    2    0    0 +2.7449393339e+02 -1.9990906394e+01 -1.5334557413e+02 3.1505780567e+02 0.0000000000e+00 0.0000e+00 -1.0000e+00
<mgrwt>
<rscale>  0 0.64118289E+03</rscale>
<asrwt>0</asrwt>
<pdfrwt beam="1">  1        2 0.51070033E-01 0.64118289E+03</pdfrwt>
<pdfrwt beam="2">  1       -2 0.47633337E-01 0.64118289E+03</pdfrwt>
<totfact> 0.49974080E+02</totfact>
</mgrwt>
<rwgt>
<wgt id='morphing_basis_vector_1'> +2.3061812e-04 </wgt>
<wgt id='morphing_basis_vector_2'> +2.2220501e-04 </wgt>
<wgt id='morphing_basis_vector_3'> +1.6572320e-04 </wgt>
<wgt id='morphing_basis_vector_4'> +4.2419503e-05 </wgt>
<wgt id='morphing_basis_vector_5'> +1.1322949e-04 </wgt>
</rwgt>
</event>
<event>
 4      1 +5.9529000e-06 6.71635100e+02 7.81860800e-03 9.08111500e-02
        2 -1    0    0  501    0 +0.0000000000e+00 +0.0000000000e+00 +1.4827173569e+03 1.4827173569e+03 0.0000000000e+00 0.0000e+00 -1.0000e+00
       -2 -1    0    0    0  501 -0.0000000000e+00 -0.0000000000e+00 -7.6058603820e+01 7.6058603820e+01 0.0000000000e+00 0.0000e+00 1.0000e+00
      -13  1    1    2    0    0 -2.7565475838e+02 -6.5885129202e+01 +2.8527023461e+02 4.0212622747e+02 0.0000000000e+00 0.0000e+00 1.0000e+00
       13  1    1    2    0    0 +2.7565475838e+02 +6.5885129202e+01 +1.1213885185e+03 1.1566497333e+03 0.0000000000e+00 0.0000e+00 -1.0000e+00
<mgrwt>
<rscale>  0 0.67163506E+03</rscale>
<asrwt>0</asrwt>
<pdfrwt beam="1">  1        2 0.22811034E+00 0.67163506E+03</pdfrwt>
<pdfrwt beam="2">  1       -2 0.11701325E-01 0.67163506E+03</pdfrwt>
<totfact> 0.78296946E+02</totfact>
</mgrwt>
<rwgt>
<wgt id='morphing_basis_vector_1'> +2.2877288e-04 </wgt>
<wgt id='morphing_basis_vector_2'> +1.3497952e-04 </wgt>
<wgt id='morphing_basis_vector_3'> +1.9098849e-04 </wgt>
<wgt id='morphing_basis_vector_4'> +9.1730106e-05 </wgt>
<wgt id='morphing_basis_vector_5'> +1.4252308e-04 </wgt>
</rwgt>
</event>
<event>
 4      1 +5.9529000e-06 7.00543800e+02 7.81860800e-03 9.03736200e-02
        2 -1    0    0  501    0 +0.0000000000e+00 +0.0000000000e+00 +1.1874110516e+03 1.1874110516e+03 0.0000000000e+00 0.0000e+00 1.0000e+00
       -2 -1    0    0    0  501 -0.0000000000e+00 -0.0000000000e+00 -1.0332597771e+02 1.0332597771e+02 0.0000000000e+00 0.0000e+00 -1.0000e+00
      -13  1    1    2    0    0 +1.8815975687e+02 -2.6848206233e+02 +3.1485889538e+02 4.5455784659e+02 0.0000000000e+00 0.0000e+00 1.0000e+00
       13  1    1    2    0    0 -1.8815975687e+02 +2.6848206233e+02 +7.6922617847e+02 8.3617918268e+02 0.0000000000e+00 0.0000e+00 -1.0000e+00
<mgrwt>
<rscale>  0 0.70054381E+03</rscale>
<asrwt>0</asrwt>
<pdfrwt beam="1">  1        2 0.18267861E+00 0.70054381E+03</pdfrwt>
<pdfrwt beam="2">  1       -2 0.15896305E-01 0.70054381E+03</pdfrwt>
<totfact> 0.70096399E+02</totfact>
</mgrwt>
<rwgt>
<wgt id='morphing_basis_vector_1'> +2.6540651e-04 </wgt>
<wgt id='morphing_basis_vector_2'> +1.6131723e-04 </wgt>
<wgt id='morphing_basis_vector_3'> +2.2509924e-04 </wgt>
<wgt id='morphing_basis_vector_4'> +1.1027974e-04 </wgt>
<wgt id='morphing_basis_vector_5'> +1.7449581e-04 </wgt>
</rwgt>
</event>
<event>
 4      1 +5.9529000e-06 6.33206500e+02 7.81860800e-03 9.14297600e-02
        2 -1    0    0  501    0 +0.0000000000e+00 +0.0000000000e+00 +1.3342949127e+03 1.3342949127e+03 0.0000000000e+00 0.0000e+00 1.0000e+00
       -2 -1    0    0    0  501 -0.0000000000e+00 -0.0000000000e+00 -7.5124024217e+01 7.5124024217e+01 0.0000000000e+00 0.0000e+00 -1.0000e+00
      -13  1    1    2    0    0 -1.5415161677e+02 +2.7122979327e+02 +7.4964248981e+02 8.1196809312e+02 0.0000000000e+00 0.0000e+00 -1.0000e+00
       13  1    1    2    0    0 +1.5415161677e+02 -2.7122979327e+02 +5.0952839870e+02 5.9745084383e+02 0.0000000000e+00 0.0000e+00 1.0000e+00
<mgrwt>
<rscale>  0 0.63320645E+03</rscale>
<asrwt>0</asrwt>
<pdfrwt beam="1">  1        2 0.20527612E+00 0.63320645E+03</pdfrwt>
<pdfrwt beam="2">  1       -2 0.11557543E-01 0.63320645E+03</pdfrwt>
<totfact> 0.96683452E+02</totfact>
</mgrwt>
<rwgt>
<wgt id='morphing_basis_vector_1'> +1.9883576e-04 </wgt>
<wgt id='morphing_basis_vector_2'> +1.4363141e-04 </wgt>
<wgt id='morphing_basis_vector_3'> +1.5402380e-04 </wgt>
<wgt id='morphing_basis_vector_4'> +5.9725237e-05 </wgt>
<wgt id='morphing_basis_vector_5'> +1.0662651e-04 </wgt>
</rwgt>
</event>
<event>
 4      1 +5.9529000e-06 6.61509500e+02 7.81860800e-03 9.09698700e-02
        2 -1    0    0  501    0 +0.0000000000e+00 +0.0000000000e+00 +1.3316534551e+03 1.3316534551e+03 0.0000000000e+00 0.0000e+00 -1.0000e+00
       -2 -1    0    0    0  501 -0.0000000000e+00 -0.0000000000e+00 -8.2152538695e+01 8.2152538695e+01 0.0000000000e+00 0.0000e+00 1.0000e+00
      -13  1    1    2    0    0 -1.4010965463e+02 +2.9140189714e+02 +4.7586380156e+02 5.7531916239e+02 0.0000000000e+00 0.0000e+00 1.0000e+00
       13  1    1    2    0    0 +1.4010965463e+02 -2.9140189714e+02 +7.7363711484e+02 8.3848683140e+02 0.0000000000e+00 0.0000e+00 -1.0000e+00
<mgrwt>
<rscale>  0 0.66150952E+03</rscale>
<asrwt>0</asrwt>
<pdfrwt beam="1">  1        2 0.20486975E+00 0.66150952E+03</pdfrwt>
<pdfrwt beam="2">  1       -2 0.12638853E-01 0.66150952E+03</pdfrwt>
<totfact> 0.84066847E+02</totfact>
</mgrwt>
<rwgt>
<wgt id='morphing_basis_vector_1'> +2.1995986e-04 </wgt>
<wgt id='morphing_basis_vector_2'> +1.3591788e-04 </wgt>
<wgt id='morphing_basis_vector_3'> +1.8079131e-04 </wgt>
<wgt id='morphing_basis_vector_4'> +8.2899937e-05 </wgt>
<wgt id='morphing_basis_vector_5'> +1.3232858e-04 </wgt>
</rwgt>
</event>
<event>
 4      1 +5.9529000e-06 7.13911100e+02 7.81860800e-03 9.01786800e-02
        2 -1    0    0  501    0 +0.0000000000e+00 +0.0000000000e+00 +1.9689680130e+03 1.9689680130e+03 0.0000000000e+00 0.0000e+00 1.0000e+00
       -2 -1    0    0    0  501 -0.0000000000e+00 -0.0000000000e+00 -6.4712713218e+01 6.4712713218e+01 0.0000000000e+00 0.0000e+00 -1.0000e+00
      -13  1    1    2    0    0 +1.5018578301e+02 -2.4666113204e+02 +1.5497991823e+03 1.5764754959e+03 0.0000000000e+00 0.0000e+00 1.0000e+00
       13  1    1    2    0    0 -1.5018578301e+02 +2.4666113204e+02 +3.5445611746e+02 4.5720523037e+02 0.0000000000e+00 0.0000e+00 -1.0000e+00
<mgrwt>
<rscale>  0 0.71391109E+03</rscale>
<asrwt>0</asrwt>
<pdfrwt beam="1">  1        2 0.30291811E+00 0.71391109E+03</pdfrwt>
<pdfrwt beam="2">  1       -2 0.99558035E-02 0.71391109E+03</pdfrwt>
<totfact> 0.54562089E+02</totfact>
</mgrwt>
<rwgt>
<wgt id='morphing_basis_vector_1'> +3.4312168e-04 </wgt>
<wgt id='morphing_basis_vector_2'> +3.5729857e-04 </wgt>
<wgt id='morphing_basis_vector_3'> +2.6541976e-04 </wgt>
<wgt id='morphing_basis_vector_4'> +5.5391477e-05 </wgt>
<wgt id='morphing_basis_vector_5'> +1.8900910e-04 </wgt>
</rwgt>
</event>
<event>
 4      1 +5.9529000e-06 6.82929500e+02 7.81860800e-03 9.06375300e-02
        2 -1    0    0  501    0 +0.0000000000e+00 +0.0000000000e+00 +1.6571544291e+02 1.6571544291e+02 0.0000000000e+00 0.0000e+00 1.0000e+00
       -2 -1    0    0    0  501 -0.0000000000e+00 -0.0000000000e+00 -7.0360474866e+02 7.0360474866e+02 0.0000000000e+00 0.0000e+00 -1.0000e+00
      -13  1    1    2    0    0 -6.4946035117e+01 +1.6744315041e+02 -6.3862670054e+02 6.6339977294e+02 0.0000000000e+00 0.0000e+00 -1.0000e+00
       13  1    1    2    0    0 +6.4946035117e+01 -1.6744315041e+02 +1.0073739479e+02 2.0592041862e+02 0.0000000000e+00 0.0000e+00 1.0000e+00
<mgrwt>
<rscale>  0 0.68292949E+03</rscale>
<asrwt>0</asrwt>
<pdfrwt beam="1">  1        2 0.25494683E-01 0.68292949E+03</pdfrwt>
<pdfrwt beam="2">  1       -2 0.10824689E+00 0.68292949E+03</pdfrwt>
<totfact> 0.18503382E+02</totfact>
</mgrwt>
<rwgt>
<wgt id='morphing_basis_vector_1'> +2.4130709e-04 </wgt>
<wgt id='morphing_basis_vector_2'> +1.4093645e-04 </wgt>
<wgt id='morphing_basis_vector_3'> +2.0339784e-04 </wgt>
<wgt id='morphing_basis_vector_4'> +9.9975166e-05 </wgt>
<wgt id='morphing_basis_vector_5'> +1.5450190e-04 </wgt>
</rwgt>
</event>
<event>
 4      1 +5.9529000e-06 7.06677200e+02 7.81860800e-03 9.02836200e-02
        2 -1    0    0  501    0 +0.0000000000e+00 +0.0000000000e+00 +2.0113487725e+03 2.0113487725e+03 0.0000000000e+00 0.0000e+00 -1.0000e+00
       -2 -1    0    0    0  501 -0.0000000000e+00 -0.0000000000e+00 -6.2071861188e+01 6.2071861188e+01 0.0000000000e+00 0.0000e+00 1.0000e+00
      -13  1    1    2    0    0 -3.1159193370e+02 +1.5620784669e+02 +8.0462249195e+02 8.7687386725e+02 0.0000000000e+00 0.0000e+00 1.0000e+00
       13  1    1    2    0    0 +3.1159193370e+02 -1.5620784669e+02 +1.1446544194e+03 1.1965467665e+03 0.0000000000e+00 0.0000e+00 -1.0000e+00
<mgrwt>
<rscale>  0 0.70667719E+03</rscale>
<asrwt>0</asrwt>
<pdfrwt beam="1">  1        2 0.30943822E+00 0.70667719E+03</pdfrwt>
<pdfrwt beam="2">  1       -2 0.95495186E-02 0.70667719E+03</pdfrwt>
<totfact> 0.55231753E+02</totfact>
</mgrwt>
<rwgt>
<wgt id='morphing_basis_vector_1'> +2.7622038e-04 </wgt>
<wgt id='morphing_basis_vector_2'> +1.7500450e-04 </wgt>
<wgt id='morphing_basis_vector_3'> +2.3384310e-04 </wgt>
<wgt id='morphing_basis_vector_4'> +1.1188109e-04 </wgt>
<wgt id='morphing_basis_vector_5'> +1.8180535e-04 </wgt>
</rwgt>
</event>
<event>
 4      1 +5.9529000e-06 7.28413000e+02 7.81860800e-03 8.99721400e-02
        2 -1    0    0  501    0 +0.0000000000e+00 +0.0000000000e+00 +1.2476602871e+03 1.2476602871e+03 0.0000000000e+00 0.0000e+00 -1.0000e+00
       -2 -1    0    0    0  501 -0.0000000000e+00 -0.0000000000e+00 -1.0631609812e+02 1.0631609812e+02 0.0000000000e+00 0.0000e+00 1.0000e+00
      -13  1    1    2    0    0 -2.2542754071e+02 -2.2118985026e+01 +4.0539776255e+01 2.3010931982e+02 0.0000000000e+00 0.0000e+00 1.0000e+00
       13  1    1    2    0    0 +2.2542754071e+02 +2.2118985026e+01 +1.1008044127e+03 1.1238670654e+03 0.0000000000e+00 0.0000e+00 -1.0000e+00
<mgrwt>
<rscale>  0 0.72841300E+03</rscale>
<asrwt>0</asrwt>
<pdfrwt beam="1">  1        2 0.19194773E+00 0.72841300E+03</pdfrwt>
<pdfrwt beam="2">  1       -2 0.16356324E-01 0.72841300E+03</pdfrwt>
<totfact> 0.61706535E+02</totfact>
</mgrwt>
<rwgt>
<wgt id='morphing_basis_vector_1'> +3.0113868e-04 </wgt>
<wgt id='morphing_basis_vector_2'> +1.7845484e-04 </wgt>
<wgt id='morphing_basis_vector_3'> +2.6084541e-04 </wgt>
<wgt id='morphing_basis_vector_4'> +1.3476204e-04 </wgt>
<wgt id='morphing_basis_vector_5'> +2.0995827e-04 </wgt>
</rwgt>
</event>
<event>
 4      1 +5.9529000e-06 6.81872400e+02 7.81860800e-03 9.06536300e-02
        2 -1    0    0  501    0 +0.0000000000e+00 +0.0000000000e+00 +1.0073727607e+03 1.0073727607e+03 0.0000000000e+00 0.0000e+00 1.0000e+00
       -2 -1    0    0    0  501 -0.0000000000e+00 -0.0000000000e+00 -1.1538678246e+02 1.1538678246e+02 0.0000000000e+00 0.0000e+00 -1.0000e+00
      -13  1    1    2    0    0 -3.3319664520e+02 +1.1578923369e+01 +5.6339130546e+02 6.5464787398e+02 0.0000000000e+00 0.0000e+00 -1.0000e+00
       13  1    1    2    0    0 +3.3319664520e+02 -1.1578923369e+01 +3.2859467277e+02 4.6811166917e+02 0.0000000000e+00 0.0000e+00 1.0000e+00
<mgrwt>
<rscale>  0 0.68187243E+03</rscale>
<asrwt>0</asrwt>
<pdfrwt beam="1">  1        2 0.15498042E+00 0.68187243E+03</pdfrwt>
<pdfrwt beam="2">  1       -2 0.17751813E-01 0.68187243E+03</pdfrwt>
<totfact> 0.74959565E+02</totfact>
</mgrwt>
<rwgt>
<wgt id='morphing_basis_vector_1'> +2.5719984e-04 </wgt>
<wgt id='morphing_basis_vector_2'> +1.9310746e-04 </wgt>
<wgt id='morphing_basis_vector_3'> +2.0726403e-04 </wgt>
<wgt id='morphing_basis_vector_4'> +8.1986169e-05 </wgt>
<wgt id='morphing_basis_vector_5'> +1.5297857e-04 </wgt>
</rwgt>
</event>
<event>
 4      1 +5.9529000e-06 6.99523900e+02 7.81860800e-03 9.03886800e-02
        2 -1    0    0  501    0 +0.0000000000e+00 +0.0000000000e+00 +3.1046437042e+03 3.1046437042e+03 0.0000000000e+00 0.0000e+00 -1.0000e+00
       -2 -1    0    0    0  501 -0.0000000000e+00 -0.0000000000e+00 -3.9403372132e+01 3.9403372132e+01 0.0000000000e+00 0.0000e+00 1.0000e+00
      -13  1    1    2    0    0 -1.5529821079e+02 +3.1262145880e+02 +1.4337685703e+03 1.4756496956e+03 0.0000000000e+00 0.0000e+00 1.0000e+00
       13  1    1    2    0    0 +1.5529821079e+02 -3.1262145880e+02 +1.6314717617e+03 1.6683973808e+03 0.0000000000e+00 0.0000e+00 -1.0000e+00
<mgrwt>
<rscale>  0 0.69952393E+03</rscale>
<asrwt>0</asrwt>
<pdfrwt beam="1">  1        2 0.47763730E+00 0.69952393E+03</pdfrwt>
<pdfrwt beam="2">  1       -2 0.60620597E-02 0.69952393E+03</pdfrwt>
<totfact> 0.25129691E+02</totfact>
</mgrwt>
<rwgt>
<wgt id='morphing_basis_vector_1'> +2.6905163e-04 </wgt>
<wgt id='morphing_basis_vector_2'> +1.7577560e-04 </wgt>
<wgt id='morphing_basis_vector_3'> +2.2555763e-04 </wgt>
<wgt id='morphing_basis_vector_4'> +1.0432138e-04 </wgt>
<wgt id='morphing_basis_vector_5'> +1.7315327e-04 </wgt>
</rwgt>
</event>
<event>
 4      1 +5.9529000e-06 7.41021200e+02 7.81860800e-03 8.97966700e-02
        2 -1    0    0  501    0 +0.0000000000e+00 +0.0000000000e+00 +1.8114568768e+02 1.8114568768e+02 0.0000000000e+00 0.0000e+00 -1.0000e+00
       -2 -1    0    0    0  501 -0.0000000000e+00 -0.0000000000e+00 -7.5783254676e+02 7.5783254676e+02 0.0000000000e+00 0.0000e+00 1.0000e+00
      -13  1    1    2    0    0 +2.6791782937e+02 +1.9643749355e+02 -4.9621033391e+02 5.9715353775e+02 0.0000000000e+00 0.0000e+00 1.0000e+00
       13  1    1    2    0    0 -2.6791782937e+02 -1.9643749355e+02 -8.0476525163e+01 3.4182469669e+02 0.0000000000e+00 0.0000e+00 -1.0000e+00
<mgrwt>
<rscale>  0 0.74102118E+03</rscale>
<asrwt>0</asrwt>
<pdfrwt beam="1">  1        2 0.27868568E-01 0.74102118E+03</pdfrwt>
<pdfrwt beam="2">  1       -2 0.11658962E+00 0.74102118E+03</pdfrwt>
<totfact> 0.13786215E+02</totfact>
</mgrwt>
<rwgt>
<wgt id='morphing_basis_vector_1'> +3.2124290e-04 </wgt>
<wgt id='morphing_basis_vector_2'> +1.9506532e-04 </wgt>
<wgt id='morphing_basis_vector_3'> +2.7952826e-04 </wgt>
<wgt id='morphing_basis_vector_4'> +1.4394558e-04 </wgt>
<wgt id='morphing_basis_vector_5'> +2.2747909e-04 </wgt>
</rwgt>
</event>
<event>
 4      1 +5.9529000e-06 6.20879400e+02 7.81860800e-03 9.16380300e-02
        2 -1    0    0  501    0 +0.0000000000e+00 +0.0000000000e+00 +3.4517640002e+02 3.4517640002e+02 0.0000000000e+00 0.0000e+00 -1.0000e+00
       -2 -1    0    0    0  501 -0.0000000000e+00 -0.0000000000e+00 -2.7919873870e+02 2.7919873870e+02 0.0000000000e+00 0.0000e+00 1.0000e+00
      -13  1    1    2    0    0 -1.3982582454e+02 -6.7591711360e+01 -2.3732360081e+02 2.8362368053e+02 0.0000000000e+00 0.0000e+00 1.0000e+00
       13  1    1    2    0    0 +1.3982582454e+02 +6.7591711360e+01 +3.0330126213e+02 3.4075145819e+02 0.0000000000e+00 0.0000e+00 -1.0000e+00
<mgrwt>
<rscale>  0 0.62087943E+03</rscale>
<asrwt>0</asrwt>
<pdfrwt beam="1">  1        2 0.53104061E-01 0.62087943E+03</pdfrwt>
<pdfrwt beam="2">  1       -2 0.42953652E-01 0.62087943E+03</pdfrwt>
<totfact> 0.58288585E+02</totfact>
</mgrwt>
<rwgt>
<wgt id='morphing_basis_vector_1'> +1.7541514e-04 </wgt>
<wgt id='morphing_basis_vector_2'> +1.0041147e-04 </wgt>
<wgt id='morphing_basis_vector_3'> +1.4146922e-04 </wgt>
<wgt id='morphing_basis_vector_4'> +6.3582578e-05 </wgt>
<wgt id='morphing_basis_vector_5'> +9.6695757e-05 </wgt>
</rwgt>
</event>
<event>
 4      1 +5.9529000e-06 7.44037600e+02 7.81860800e-03 8.97552400e-02
        2 -1    0    0  501    0 +0.0000000000e+00 +0.0000000000e+00 +5.8649073273e+02 5.8649073273e+02 0.0000000000e+00 0.0000e+00 1.0000e+00
       -2 -1    0    0    0  501 -0.0000000000e+00 -0.0000000000e+00 -2.3597641300e+02 2.3597641300e+02 0.0000000000e+00 0.0000e+00 -1.0000e+00
      -13  1    1    2    0    0 -1.0492532838e+02 +2.8767288654e+02 -5.8277614607e+01 3.1170706529e+02 0.0000000000e+00 0.0000e+00 -1.0000e+00
       13  1    1    2    0    0 +1.0492532838e+02 -2.8767288654e+02 +4.0879193434e+02 5.1076008043e+02 0.0000000000e+00 0.0000e+00 1.0000e+00
<mgrwt>
<rscale>  0 0.74403758E+03</rscale>
<asrwt>0</asrwt>
<pdfrwt beam="1">  1        2 0.90229343E-01 0.74403758E+03</pdfrwt>
<pdfrwt beam="2">  1       -2 0.36304064E-01 0.74403758E+03</pdfrwt>
<totfact> 0.43418630E+02</totfact>
</mgrwt>
<rwgt>
<wgt id='morphing_basis_vector_1'> +3.2492060e-04 </wgt>
<wgt id='morphing_basis_vector_2'> +1.9524638e-04 </wgt>
<wgt id='morphing_basis_vector_3'> +2.8356200e-04 </wgt>
<wgt id='morphing_basis_vector_4'> +1.4767710e-04 </wgt>
<wgt id='morphing_basis_vector_5'> +2.3187007e-04 </wgt>
</rwgt>
</event>
<event>
 4      1 +5.9529000e-06 6.78797000e+02 7.81860800e-03 9.07006500e-02
        2 -1    0    0  501    0 +0.0000000000e+00 +0.0000000000e+00 +8.8697915120e+02 8.8697915120e+02 0.0000000000e+00 0.0000e+00 -1.0000e+00
       -2 -1    0    0    0  501 -0.0000000000e+00 -0.0000000000e+00 -1.2986928239e+02 1.2986928239e+02 0.0000000000e+00 0.0000e+00 1.0000e+00
      -13  1    1    2    0    0 -1.7327549855e+02 -1.4062676848e+02 -4.5127257288e+00 2.2320540115e+02 0.0000000000e+00 0.0000e+00 1.0000e+00
       13  1    1    2    0    0 +1.7327549855e+02 +1.4062676848e+02 +7.6162259455e+02 7.9364303244e+02 0.0000000000e+00 0.0000e+00 -1.0000e+00
<mgrwt>
<rscale>  0 0.67879701E+03</rscale>
<asrwt>0</asrwt>
<pdfrwt beam="1">  1        2 0.13645833E+00 0.67879701E+03</pdfrwt>
<pdfrwt beam="2">  1       -2 0.19979890E-01 0.67879701E+03</pdfrwt>
<totfact> 0.73471725E+02</totfact>
</mgrwt>
<rwgt>
<wgt id='morphing_basis_vector_1'> +2.3650458e-04 </wgt>
<wgt id='morphing_basis_vector_2'> +1.3825661e-04 </wgt>
<wgt id='morphing_basis_vector_3'> +1.9874842e-04 </wgt>
<wgt id='morphing_basis_vector_4'> +9.7050666e-05 </wgt>
<wgt id='morphing_basis_vector_5'> +1.5004230e-04 </wgt>
</rwgt>
</event>
<event>
 4      1 +5.9529000e-06 7.43980000e+02 7.81860800e-03 8.97560300e-02
        2 -1    0    0  501    0 +0.0000000000e+00 +0.0000000000e+00 +1.1939624950e+03 1.1939624950e+03 0.0000000000e+00 0.0000e+00 -1.0000e+00
       -2 -1    0    0    0  501 -0.0000000000e+00 -0.0000000000e+00 -1.1589691633e+02 1.1589691633e+02 0.0000000000e+00 0.0000e+00 1.0000e+00
      -13  1    1    2    0    0 +4.0925436622e+01 +1.8765875774e+02 -2.1842358885e+01 1.9330749950e+02 0.0000000000e+00 0.0000e+00 1.0000e+00
       13  1    1    2    0    0 -4.0925436622e+01 -1.8765875774e+02 +1.0999079376e+03 1.1165519119e+03 0.0000000000e+00 0.0000e+00 -1.0000e+00
<mgrwt>
<rscale>  0 0.74398003E+03</rscale>
<asrwt>0</asrwt>
<pdfrwt beam="1">  1        2 0.18368653E+00 0.74398003E+03</pdfrwt>
<pdfrwt beam="2">  1       -2 0.17830296E-01 0.74398003E+03</pdfrwt>
<totfact> 0.57478869E+02</totfact>
</mgrwt>
<rwgt>
<wgt id='morphing_basis_vector_1'> +3.2396463e-04 </wgt>
<wgt id='morphing_basis_vector_2'> +1.9252155e-04 </wgt>
<wgt id='morphing_basis_vector_3'> +2.8307180e-04 </wgt>
<wgt id='morphing_basis_vector_4'> +1.4862496e-04 </wgt>
<wgt id='morphing_basis_vector_5'> +2.3182085e-04 </wgt>
</rwgt>
</event>
<event>
 4      1 +5.9529000e-06 6.31646700e+02 7.81860800e-03 9.14558400e-02
        2 -1    0    0  501    0 +0.0000000000e+00 +0.0000000000e+00 +6.0475008513e+02 6.0475008513e+02 0.0000000000e+00 0.0000e+00 -1.0000e+00
       -2 -1    0    0    0  501 -0.0000000000e+00 -0.0000000000e+00 -1.6493489072e+02 1.6493489072e+02 0.0000000000e+00 0.0000e+00 1.0000e+00
      -13  1    1    2    0    0 +2.5311903441e+02 -1.4679608565e+02 +7.5080712291e+01 3.0208516961e+02 0.0000000000e+00 0.0000e+00 1.0000e+00
       13  1    1    2    0    0 -2.5311903441e+02 +1.4679608565e+02 +3.6473448213e+02 4.6759980624e+02 0.0000000000e+00 0.0000e+00 -1.0000e+00
<mgrwt>
<rscale>  0 0.63164670E+03</rscale>
<asrwt>0</asrwt>
<pdfrwt beam="1">  1        2 0.93038473E-01 0.63164670E+03</pdfrwt>
<pdfrwt beam="2">  1       -2 0.25374599E-01 0.63164670E+03</pdfrwt>
<totfact> 0.79086680E+02</totfact>
</mgrwt>
<rwgt>
<wgt id='morphing_basis_vector_1'> +1.8704629e-04 </wgt>
<wgt id='morphing_basis_vector_2'> +1.1092689e-04 </wgt>
<wgt id='morphing_basis_vector_3'> +1.5116920e-04 </wgt>
<wgt id='morphing_basis_vector_4'> +6.7868837e-05 </wgt>
<wgt id='morphing_basis_vector_5'> +1.0538778e-04 </wgt>
</rwgt>
</event>
<event>
 4      1 +5.9529000e-06 7.34960200e+02 7.81860800e-03 8.98805500e-02
        2 -1    0    0  501    0 +0.0000000000e+00 +0.0000000000e+00 +4.4959214392e+02 4.4959214392e+02 0.0000000000e+00 0.0000e+00 1.0000e+00
       -2 -1    0    0    0  501 -0.0000000000e+00 -0.0000000000e+00 -3.0036473529e+02 3.0036473529e+02 0.0000000000e+00 0.0000e+00 -1.0000e+00
      -13  1    1    2    0    0 +2.5589819182e+02 -2.3056086066e+02 -5.6059592854e+01 3.4897689465e+02 0.0000000000e+00 0.0000e+00 -1.0000e+00
       13  1    1    2    0    0 -2.5589819182e+02 +2.3056086066e+02 +2.0528700148e+02 4.0097998457e+02 0.0000000000e+00 0.0000e+00 1.0000e+00
<mgrwt>
<rscale>  0 0.73496020E+03</rscale>
<asrwt>0</asrwt>
<pdfrwt beam="1">  1        2 0.69168022E-01 0.73496020E+03</pdfrwt>
<pdfrwt beam="2">  1       -2 0.46209959E-01 0.73496020E+03</pdfrwt>
<totfact> 0.37527911E+02</totfact>
</mgrwt>
<rwgt>
<wgt id='morphing_basis_vector_1'> +3.1317657e-04 </wgt>
<wgt id='morphing_basis_vector_2'> +1.9225729e-04 </wgt>
<wgt id='morphing_basis_vector_3'> +2.7117596e-04 </wgt>
<wgt id='morphing_basis_vector_4'> +1.3753149e-04 </wgt>
<wgt id='morphing_basis_vector_5'> +2.1886849e-04 </wgt>
</rwgt>
</event>
<event>
 4      1 +5.9529000e-06 6.96908700e+02 7.81860800e-03 9.04274200e-02
        2 -1    0    0  501    0 +0.0000000000e+00 +0.0000000000e+00 +5.3354170840e+02 5.3354170840e+02 0.0000000000e+00 0.0000e+00 -1.0000e+00
       -2 -1    0    0    0  501 -0.0000000000e+00 -0.0000000000e+00 -2.2757440737e+02 2.2757440737e+02 0.0000000000e+00 0.0000e+00 1.0000e+00
      -13  1    1    2    0    0 +5.3888750386e+01 -2.3814021331e+02 -1.1852846712e+02 2.7141067800e+02 0.0000000000e+00 0.0000e+00 1.0000e+00
       13  1    1    2    0    0 -5.3888750386e+01 +2.3814021331e+02 +4.2449576814e+02 4.8970543777e+02 0.0000000000e+00 0.0000e+00 -1.0000e+00
<mgrwt>
<rscale>  0 0.69690871E+03</rscale>
<asrwt>0</asrwt>
<pdfrwt beam="1">  1        2 0.82083339E-01 0.69690871E+03</pdfrwt>
<pdfrwt beam="2">  1       -2 0.35011447E-01 0.69690871E+03</pdfrwt>
<totfact> 0.51837819E+02</totfact>
</mgrwt>
<rwgt>
<wgt id='morphing_basis_vector_1'> +2.5877505e-04 </wgt>
<wgt id='morphing_basis_vector_2'> +1.5230150e-04 </wgt>
<wgt id='morphing_basis_vector_3'> +2.1995079e-04 </wgt>
<wgt id='morphing_basis_vector_4'> +1.0968012e-04 </wgt>
<wgt id='morphing_basis_vector_5'> +1.7026918e-04 </wgt>
</rwgt>
</event>
<event>
 4      1 +5.9529000e-06 6.49792900e+02 7.81860800e-03 9.11572700e-02
        2 -1    0    0  501    0 +0.0000000000e+00 +0.0000000000e+00 +1.0304008004e+03 1.0304008004e+03 0.0000000000e+00 0.0000e+00 -1.0000e+00
       -2 -1    0    0    0  501 -0.0000000000e+00 -0.0000000000e+00 -1.0244333223e+02 1.0244333223e+02 0.0000000000e+00 0.0000e+00 1.0000e+00
      -13  1    1    2    0    0 -2.4024376235e+02 -1.5150206129e+02 +1.8894367734e+02 3.4112996516e+02 0.0000000000e+00 0.0000e+00 1.0000e+00
       13  1    1    2    0    0 +2.4024376235e+02 +1.5150206129e+02 +7.3901379082e+02 7.9171416745e+02 0.0000000000e+00 0.0000e+00 -1.0000e+00
<mgrwt>
<rscale>  0 0.64979286E+03</rscale>
<asrwt>0</asrwt>
<pdfrwt beam="1">  1        2 0.15852319E+00 0.64979286E+03</pdfrwt>
<pdfrwt beam="2">  1       -2 0.15760513E-01 0.64979286E+03</pdfrwt>
<totfact> 0.88219355E+02</totfact>
</mgrwt>
<rwgt>
<wgt id='morphing_basis_vector_1'> +2.0491200e-04 </wgt>
<wgt id='morphing_basis_vector_2'> +1.2062786e-04 </wgt>
<wgt id='morphing_basis_vector_3'> +1.6832188e-04 </wgt>
<wgt id='morphing_basis_vector_4'> +7.8259153e-05 </wgt>
<wgt id='morphing_basis_vector_5'> +1.2126589e-04 </wgt>
</rwgt>
</event>
<event>
 4      1 +5.9529000e-06 6.86491300e+02 7.81860800e-03 9.05835000e-02
        2 -1    0    0  501    0 +0.0000000000e+00 +0.0000000000e+00 +1.2478841882e+02 1.2478841882e+02 0.0000000000e+00 0.0000e+00 -1.0000e+00
       -2 -1    0    0    0  501 -0.0000000000e+00 -0.0000000000e+00 -9.4413866056e+02 9.4413866056e+02 0.0000000000e+00 0.0000e+00 1.0000e+00
      -13  1    1    2    0    0 +1.4207296563e+02 +2.0997297847e+02 -7.6997924566e+02 8.1064259572e+02 0.0000000000e+00 0.0000e+00 1.0000e+00
       13  1    1    2    0    0 -1.4207296563e+02 -2.0997297847e+02 -4.9370996084e+01 2.5828448367e+02 0.0000000000e+00 0.0000e+00 -1.0000e+00
<mgrwt>
<rscale>  0 0.68649128E+03</rscale>
<asrwt>0</asrwt>
<pdfrwt beam="1">  1        2 0.19198219E-01 0.68649128E+03</pdfrwt>
<pdfrwt beam="2">  1       -2 0.14525210E+00 0.68649128E+03</pdfrwt>
<totfact> 0.11935089E+02</totfact>
</mgrwt>
<rwgt>
<wgt id='morphing_basis_vector_1'> +2.4590786e-04 </wgt>
<wgt id='morphing_basis_vector_2'> +1.4451236e-04 </wgt>
<wgt id='morphing_basis_vector_3'> +2.0759376e-04 </wgt>
<wgt id='morphing_basis_vector_4'> +1.0214098e-04 </wgt>
<wgt id='morphing_basis_vector_5'> +1.5841114e-04 </wgt>
</rwgt>
</event>
<event>
 4      1 +5.9529000e-06 6.73472500e+02 7.81860800e-03 9.07826700e-02
        2 -1    0    0  501    0 +0.0000000000e+00 +0.0000000000e+00 +1.2764339070e+03 1.2764339070e+03 0.0000000000e+00 0.0000e+00 -1.0000e+00
       -2 -1    0    0    0  501 -0.0000000000e+00 -0.0000000000e+00 -8.8834440294e+01 8.8834440294e+01 0.0000000000e+00 0.0000e+00 1.0000e+00
      -13  1    1    2    0    0 +2.8081832519e+02 +7.0429332443e+01 +2.4519038378e+02 3.7939102115e+02 0.0000000000e+00 0.0000e+00 1.0000e+00
       13  1    1    2    0    0 -2.8081832519e+02 -7.0429332443e+01 +9.4240908295e+02 9.8587732617e+02 0.0000000000e+00 0.0000e+00 -1.0000e+00
<mgrwt>
<rscale>  0 0.67347247E+03</rscale>
<asrwt>0</asrwt>
<pdfrwt beam="1">  1        2 0.19637443E+00 0.67347247E+03</pdfrwt>
<pdfrwt beam="2">  1       -2 0.13666838E-01 0.67347247E+03</pdfrwt>
<totfact> 0.79645851E+02</totfact>
</mgrwt>
<rwgt>
<wgt id='morphing_basis_vector_1'> +2.3101647e-04 </wgt>
<wgt id='morphing_basis_vector_2'> +1.3667805e-04 </wgt>
<wgt id='morphing_basis_vector_3'> +1.9303443e-04 </wgt>
<wgt id='morphing_basis_vector_4'> +9.2798345e-05 </wgt>
<wgt id='morphing_basis_vector_5'> +1.4442053e-04 </wgt>
</rwgt>
</event>
<event>
 4      1 +5.9529000e-06 6.62203200e+02 7.81860800e-03 9.09589000e-02
        2 -1    0    0  501    0 +0.0000000000e+00 +0.0000000000e+00 +7.0201955900e+02 7.0201955900e+02 0.0000000000e+00 0.0000e+00 -1.0000e+00
       -2 -1    0    0    0  501 -0.0000000000e+00 -0.0000000000e+00 -1.5616129819e+02 1.5616129819e+02 0.0000000000e+00 0.0000e+00 1.0000e+00
      -13  1    1    2    0    0 +1.4855831539e+02 -1.8185698144e+02 -2.9576158001e+01 2.3667759483e+02 0.0000000000e+00 0.0000e+00 1.0000e+00
       13  1    1    2    0    0 -1.4855831539e+02 +1.8185698144e+02 +5.7543441881e+02 6.2150326236e+02 0.0000000000e+00 0.0000e+00 -1.0000e+00
<mgrwt>
<rscale>  0 0.66220325E+03</rscale>
<asrwt>0</asrwt>
<pdfrwt beam="1">  1        2 0.10800301E+00 0.66220325E+03</pdfrwt>
<pdfrwt beam="2">  1       -2 0.24024816E-01 0.66220325E+03</pdfrwt>
<totfact> 0.72593522E+02</totfact>
</mgrwt>
<rwgt>
<wgt id='morphing_basis_vector_1'> +2.1761244e-04 </wgt>
<wgt id='morphing_basis_vector_2'> +1.2677000e-04 </wgt>
<wgt id='morphing_basis_vector_3'> +1.8078988e-04 </wgt>
<wgt id='morphing_basis_vector_4'> +8.6292693e-05 </wgt>
<wgt id='morphing_basis_vector_5'> +1.3305579e-04 </wgt>
</rwgt>
</event>
<event>
 4      1 +5.9529000e-06 6.38138800e+02 7.81860800e-03 9.13478200e-02
        2 -1    0    0  501    0 +0.0000000000e+00 +0.0000000000e+00 +7.2148608036e+02 7.2148608036e+02 0.0000000000e+00 0.0000e+00 1.0000e+00
       -2 -1    0    0    0  501 -0.0000000000e+00 -0.0000000000e+00 -1.4110500347e+02 1.4110500347e+02 0.0000000000e+00 0.0000e+00 -1.0000e+00
      -13  1    1    2    0    0 -2.0605122943e+02 +2.2925153675e+02 +1.7879031740e+02 3.5634162520e+02 0.0000000000e+00 0.0000e+00 -1.0000e+00
       13  1    1    2    0    0 +2.0605122943e+02 -2.2925153675e+02 +4.0159075949e+02 5.0624945863e+02 0.0000000000e+00 0.0000e+00 1.0000e+00
<mgrwt>
<rscale>  0 0.63813884E+03</rscale>
<asrwt>0</asrwt>
<pdfrwt beam="1">  1        2 0.11099786E+00 0.63813884E+03</pdfrwt>
<pdfrwt beam="2">  1       -2 0.21708462E-01 0.63813884E+03</pdfrwt>
<totfact> 0.83350042E+02</totfact>
</mgrwt>
<rwgt>
<wgt id='morphing_basis_vector_1'> +1.9448509e-04 </wgt>
<wgt id='morphing_basis_vector_2'> +1.1802448e-04 </wgt>
<wgt id='morphing_basis_vector_3'> +1.5733574e-04 </wgt>
<wgt id='morphing_basis_vector_4'> +7.0397638e-05 </wgt>
<wgt id='morphing_basis_vector_5'> +1.1087911e-04 </wgt>
</rwgt>
</event>
<event>
 4      1 +5.9529000e-06 6.32602400e+02 7.81860800e-03 9.14398500e-02
        2 -1    0    0  501    0 +0.0000000000e+00 +0.0000000000e+00 +8.0934053205e+02 8.0934053205e+02 0.0000000000e+00 0.0000e+00 -1.0000e+00
       -2 -1    0    0    0  501 -0.0000000000e+00 -0.0000000000e+00 -1.2361477294e+02 1.2361477294e+02 0.0000000000e+00 0.0000e+00 1.0000e+00
      -13  1    1    2    0    0 +2.3246777667e+02 -5.0415386650e+01 +3.5400349603e+01 2.4049150329e+02 0.0000000000e+00 0.0000e+00 1.0000e+00
       13  1    1    2    0    0 -2.3246777667e+02 +5.0415386650e+01 +6.5032540951e+02 6.9246380170e+02 0.0000000000e+00 0.0000e+00 -1.0000e+00
<mgrwt>
<rscale>  0 0.63260239E+03</rscale>
<asrwt>0</asrwt>
<pdfrwt beam="1">  1        2 0.12451392E+00 0.63260239E+03</pdfrwt>
<pdfrwt beam="2">  1       -2 0.19017658E-01 0.63260239E+03</pdfrwt>
<totfact> 0.89985855E+02</totfact>
</mgrwt>
<rwgt>
<wgt id='morphing_basis_vector_1'> +1.8686258e-04 </wgt>
<wgt id='morphing_basis_vector_2'> +1.0804021e-04 </wgt>
<wgt id='morphing_basis_vector_3'> +1.5188900e-04 </wgt>
<wgt id='morphing_basis_vector_4'> +6.9340057e-05 </wgt>
<wgt id='morphing_basis_vector_5'> +1.0619186e-04 </wgt>
</rwgt>
</event>
<event>
 4      1 +5.9529000e-06 6.93056500e+02 7.81860800e-03 9.04848100e-02
        2 -1    0    0  501    0 +0.0000000000e+00 +0.0000000000e+00 +1.2648976467e+03 1.2648976467e+03 0.0000000000e+00 0.0000e+00 -1.0000e+00
       -2 -1    0    0    0  501 -0.0000000000e+00 -0.0000000000e+00 -9.4934014884e+01 9.4934014884e+01 0.0000000000e+00 0.0000e+00 1.0000e+00
      -13  1    1    2    0    0 -1.3894962591e+02 +3.1323988937e+02 +4.8387122335e+02 5.9292291878e+02 0.0000000000e+00 0.0000e+00 1.0000e+00
       13  1    1    2    0    0 +1.3894962591e+02 -3.1323988937e+02 +6.8609240848e+02 7.6690874282e+02 0.0000000000e+00 0.0000e+00 -1.0000e+00
<mgrwt>
<rscale>  0 0.69305645E+03</rscale>
<asrwt>0</asrwt>
<pdfrwt beam="1">  1        2 0.19459963E+00 0.69305645E+03</pdfrwt>
<pdfrwt beam="2">  1       -2 0.14605234E-01 0.69305645E+03</pdfrwt>
<totfact> 0.72599508E+02</totfact>
</mgrwt>
<rwgt>
<wgt id='morphing_basis_vector_1'> +2.5869850e-04 </wgt>
<wgt id='morphing_basis_vector_2'> +1.6400781e-04 </wgt>
<wgt id='morphing_basis_vector_3'> +2.1687576e-04 </wgt>
<wgt id='morphing_basis_vector_4'> +1.0194133e-04 </wgt>
<wgt id='morphing_basis_vector_5'> +1.6569386e-04 </wgt>
</rwgt>
</event>
<event>
 4      1 +5.9529000e-06 6.26075900e+02 7.81860800e-03 9.15496200e-02
        2 -1    0    0  501    0 +0.0000000000e+00 +0.0000000000e+00 +2.9408064462e+02 2.9408064462e+02 0.0000000000e+00 0.0000e+00 1.0000e+00
       -2 -1    0    0    0  501 -0.0000000000e+00 -0.0000000000e+00 -3.3321731085e+02 3.3321731085e+02 0.0000000000e+00 0.0000e+00 -1.0000e+00
      -13  1    1    2    0    0 -3.0554274424e+02 -3.1380588146e+01 -8.0115182848e+01 3.1742645194e+02 0.0000000000e+00 0.0000e+00 1.0000e+00
       13  1    1    2    0    0 +3.0554274424e+02 +3.1380588146e+01 +4.0978516615e+01 3.0987150352e+02 0.0000000000e+00 0.0000e+00 -1.0000e+00
<mgrwt>
<rscale>  0 0.62607591E+03</rscale>
<asrwt>0</asrwt>
<pdfrwt beam="1">  1        2 0.45243176E-01 0.62607591E+03</pdfrwt>
<pdfrwt beam="2">  1       -2 0.51264202E-01 0.62607591E+03</pdfrwt>
<totfact> 0.49637552E+02</totfact>
</mgrwt>
<rwgt>
<wgt id='morphing_basis_vector_1'> +1.8324789e-04 </wgt>
<wgt id='morphing_basis_vector_2'> +1.1250189e-04 </wgt>
<wgt id='morphing_basis_vector_3'> +1.4633740e-04 </wgt>
<wgt id='morphing_basis_vector_4'> +6.3681457e-05 </wgt>
<wgt id='morphing_basis_vector_5'> +1.0081756e-04 </wgt>
</rwgt>
</event>
<event>
 4      1 +5.9529000e-06 7.16623700e+02 7.81860800e-03 9.01396600e-02
        2 -1    0    0  501    0 +0.0000000000e+00 +0.0000000000e+00 +2.0097770929e+03 2.0097770929e+03 0.0000000000e+00 0.0000e+00 -1.0000e+00
       -2 -1    0    0    0  501 -0.0000000000e+00 -0.0000000000e+00 -6.3881395601e+01 6.3881395601e+01 0.0000000000e+00 0.0000e+00 1.0000e+00
      -13  1    1    2    0    0 +3.1551909494e+02 -7.4456882910e+01 +5.3133429998e+02 6.2242450548e+02 0.0000000000e+00 0.0000e+00 1.0000e+00
       13  1    1    2    0    0 -3.1551909494e+02 +7.4456882910e+01 +1.4145613973e+03 1.4512339830e+03 0.0000000000e+00 0.0000e+00 -1.0000e+00
<mgrwt>
<rscale>  0 0.71662365E+03</rscale>
<asrwt>0</asrwt>
<pdfrwt beam="1">  1        2 0.30919643E+00 0.71662365E+03</pdfrwt>
<pdfrwt beam="2">  1       -2 0.98279086E-02 0.71662365E+03</pdfrwt>
<totfact> 0.52861542E+02</totfact>
</mgrwt>
<rwgt>
<wgt id='morphing_basis_vector_1'> +2.8621987e-04 </wgt>
<wgt id='morphing_basis_vector_2'> +1.7299544e-04 </wgt>
<wgt id='morphing_basis_vector_3'> +2.4551703e-04 </wgt>
<wgt id='morphing_basis_vector_4'> +1.2326473e-04 </wgt>
<wgt id='morphing_basis_vector_5'> +1.9436221e-04 </wgt>
</rwgt>
</event>
<event>
 4      1 +5.9529000e-06 6.51907700e+02 7.81860800e-03 9.11231400e-02
        2 -1    0    0  501    0 +0.0000000000e+00 +0.0000000000e+00 +1.2365148122e+03 1.2365148122e+03 0.0000000000e+00 0.0000e+00 -1.0000e+00
       -2 -1    0    0    0  501 -0.0000000000e+00 -0.0000000000e+00 -8.5923699685e+01 8.5923699685e+01 0.0000000000e+00 0.0000e+00 1.0000e+00
      -13  1    1    2    0    0 +4.6612063469e+01 -2.6757103698e+02 +2.0970871273e+02 3.4313945923e+02 0.0000000000e+00 0.0000e+00 1.0000e+00
       13  1    1    2    0    0 -4.6612063469e+01 +2.6757103698e+02 +9.4088239975e+02 9.7929905261e+02 0.0000000000e+00 0.0000e+00 -1.0000e+00
<mgrwt>
<rscale>  0 0.65190775E+03</rscale>
<asrwt>0</asrwt>
<pdfrwt beam="1">  1        2 0.19023303E+00 0.65190775E+03</pdfrwt>
<pdfrwt beam="2">  1       -2 0.13219032E-01 0.65190775E+03</pdfrwt>
<totfact> 0.88602105E+02</totfact>
</mgrwt>
<rwgt>
<wgt id='morphing_basis_vector_1'> +2.0686909e-04 </wgt>
<wgt id='morphing_basis_vector_2'> +1.2114982e-04 </wgt>
<wgt id='morphing_basis_vector_3'> +1.7036839e-04 </wgt>
<wgt id='morphing_basis_vector_4'> +7.9738619e-05 </wgt>
<wgt id='morphing_basis_vector_5'> +1.2322252e-04 </wgt>
</rwgt>
</event>
<event>
 4      1 +5.9529000e-06 6.91294800e+02 7.81860800e-03 9.05111800e-02
        2 -1    0    0  501    0 +0.0000000000e+00 +0.0000000000e+00 +1.0843569405e+03 1.0843569405e+03 0.0000000000e+00 0.0000e+00 -1.0000e+00
       -2 -1    0    0    0  501 -0.0000000000e+00 -0.0000000000e+00 -1.1017785581e+02 1.1017785581e+02 0.0000000000e+00 0.0000e+00 1.0000e+00
      -13  1    1    2    0    0 +1.7941028491e+02 -2.9492865225e+02 +4.5710234449e+02 5.7281193562e+02 0.0000000000e+00 0.0000e+00 1.0000e+00
       13  1    1    2    0    0 -1.7941028491e+02 +2.9492865225e+02 +5.1707674020e+02 6.2172286069e+02 0.0000000000e+00 0.0000e+00 -1.0000e+00
<mgrwt>
<rscale>  0 0.69129479E+03</rscale>
<asrwt>0</asrwt>
<pdfrwt beam="1">  1        2 0.16682414E+00 0.69129479E+03</pdfrwt>
<pdfrwt beam="2">  1       -2 0.16950440E-01 0.69129479E+03</pdfrwt>
<totfact> 0.72601501E+02</totfact>
</mgrwt>
<rwgt>
<wgt id='morphing_basis_vector_1'> +2.5871363e-04 </wgt>
<wgt id='morphing_basis_vector_2'> +1.6945965e-04 </wgt>
<wgt id='morphing_basis_vector_3'> +2.1546767e-04 </wgt>
<wgt id='morphing_basis_vector_4'> +9.8423459e-05 </wgt>
<wgt id='morphing_basis_vector_5'> +1.6363237e-04 </wgt>
</rwgt>
</event>
<event>
 4      1 +5.9529000e-06 7.30101400e+02 7.81860800e-03 8.99484200e-02
        2 -1    0    0  501    0 +0.0000000000e+00 +0.0000000000e+00 +2.6490975095e+02 2.6490975095e+02 0.0000000000e+00 0.0000e+00 1.0000e+00
       -2 -1    0    0    0  501 -0.0000000000e+00 -0.0000000000e+00 -5.0304679081e+02 5.0304679081e+02 0.0000000000e+00 0.0000e+00 -1.0000e+00
      -13  1    1    2    0    0 +4.6689679942e+01 -3.6197164057e+02 -1.2712085546e+02 3.8647523424e+02 0.0000000000e+00 0.0000e+00 -1.0000e+00
       13  1    1    2    0    0 -4.6689679942e+01 +3.6197164057e+02 -1.1101618440e+02 3.8148130752e+02 0.0000000000e+00 0.0000e+00 1.0000e+00
<mgrwt>
<rscale>  0 0.73010136E+03</rscale>
<asrwt>0</asrwt>
<pdfrwt beam="1">  1        2 0.40755346E-01 0.73010136E+03</pdfrwt>
<pdfrwt beam="2">  1       -2 0.77391814E-01 0.73010136E+03</pdfrwt>
<totfact> 0.23647249E+02</totfact>
</mgrwt>
<rwgt>
<wgt id='morphing_basis_vector_1'> +3.1319485e-04 </wgt>
<wgt id='morphing_basis_vector_2'> +2.0960713e-04 </wgt>
<wgt id='morphing_basis_vector_3'> +2.6734320e-04 </wgt>
<wgt id='morphing_basis_vector_4'> +1.2540478e-04 </wgt>
<wgt id='morphing_basis_vector_5'> +2.1190919e-04 </wgt>
</rwgt>
</event>
<event>
 4      1 +5.9529000e-06 6.23104200e+02 7.81860800e-03 9.16000600e-02
        2 -1    0    0  501    0 +0.0000000000e+00 +0.0000000000e+00 +1.5100319786e+03 1.5100319786e+03 0.0000000000e+00 0.0000e+00 -1.0000e+00
       -2 -1    0    0    0  501 -0.0000000000e+00 -0.0000000000e+00 -6.4279914377e+01 6.4279914377e+01 0.0000000000e+00 0.0000e+00 1.0000e+00
      -13  1    1    2    0    0 -2.9576751587e+02 -5.9657662704e+01 +9.1902690607e+02 9.6728895075e+02 0.0000000000e+00 0.0000e+00 1.0000e+00
       13  1    1    2    0    0 +2.9576751587e+02 +5.9657662704e+01 +5.2672515816e+02 6.0702294224e+02 0.0000000000e+00 0.0000e+00 -1.0000e+00
<mgrwt>
<rscale>  0 0.62310425E+03</rscale>
<asrwt>0</asrwt>
<pdfrwt beam="1">  1        2 0.23231259E+00 0.62310425E+03</pdfrwt>
<pdfrwt beam="2">  1       -2 0.98892187E-02 0.62310425E+03</pdfrwt>
<totfact> 0.98826782E+02</totfact>
</mgrwt>
<rwgt>
<wgt id='morphing_basis_vector_1'> +1.9186365e-04 </wgt>
<wgt id='morphing_basis_vector_2'> +1.4617675e-04 </wgt>
<wgt id='morphing_basis_vector_3'> +1.4488790e-04 </wgt>
<wgt id='morphing_basis_vector_4'> +5.2581308e-05 </wgt>
<wgt id='morphing_basis_vector_5'> +9.8408641e-05 </wgt>
</rwgt>
</event>
<event>
 4      1 +5.9529000e-06 7.14580800e+02 7.81860800e-03 9.01690300e-02
        2 -1    0    0  501    0 +0.0000000000e+00 +0.0000000000e+00 +1.1906176022e+03 1.1906176022e+03 0.0000000000e+00 0.0000e+00 1.0000e+00
       -2 -1    0    0    0  501 -0.0000000000e+00 -0.0000000000e+00 -1.0721865639e+02 1.0721865639e+02 0.0000000000e+00 0.0000e+00 -1.0000e+00
      -13  1    1    2    0    0 -1.1473382670e+02 +3.0595716072e+02 +2.7923968102e+02 4.2982372508e+02 0.0000000000e+00 0.0000e+00 -1.0000e+00
       13  1    1    2    0    0 +1.1473382670e+02 -3.0595716072e+02 +8.0415926478e+02 8.6801253350e+02 0.0000000000e+00 0.0000e+00 1.0000e+00
<mgrwt>
<rscale>  0 0.71458077E+03</rscale>
<asrwt>0</asrwt>
<pdfrwt beam="1">  1        2 0.18317193E+00 0.71458077E+03</pdfrwt>
<pdfrwt beam="2">  1       -2 0.16495179E-01 0.71458077E+03</pdfrwt>
<totfact> 0.65678826E+02</totfact>
</mgrwt>
<rwgt>
<wgt id='morphing_basis_vector_1'> +2.8360385e-04 </wgt>
<wgt id='morphing_basis_vector_2'> +1.7177600e-04 </wgt>
<wgt id='morphing_basis_vector_3'> +2.4288799e-04 </wgt>
<wgt id='morphing_basis_vector_4'> +1.2144910e-04 </wgt>
<wgt id='morphing_basis_vector_5'> +1.9174997e-04 </wgt>
</rwgt>
</event>
<event>
 4      1 +5.9529000e-06 6.20176400e+02 7.81860800e-03 9.16500600e-02
        2 -1    0    0  501    0 +0.0000000000e+00 +0.0000000000e+00 +5.9827264994e+02 5.9827264994e+02 0.0000000000e+00 0.0000e+00 -1.0000e+00
       -2 -1    0    0    0  501 -0.0000000000e+00 -0.0000000000e+00 -1.6072054495e+02 1.6072054495e+02 0.0000000000e+00 0.0000e+00 1.0000e+00
      -13  1    1    2    0    0 -1.0623017485e+02 +2.1575973248e+01 -1.3677747058e+02 1.7452349162e+02 0.0000000000e+00 0.0000e+00 1.0000e+00
       13  1    1    2    0    0 +1.0623017485e+02 -2.1575973248e+01 +5.7432957557e+02 5.8446970327e+02 0.0000000000e+00 0.0000e+00 -1.0000e+00
<mgrwt>
<rscale>  0 0.62017645E+03</rscale>
<asrwt>0</asrwt>
<pdfrwt beam="1">  1        2 0.92041945E-01 0.62017645E+03</pdfrwt>
<pdfrwt beam="2">  1       -2 0.24726238E-01 0.62017645E+03</pdfrwt>
<totfact> 0.83733989E+02</totfact>
</mgrwt>
<rwgt>
<wgt id='morphing_basis_vector_1'> +1.7473474e-04 </wgt>
<wgt id='morphing_basis_vector_2'> +9.9929929e-05 </wgt>
<wgt id='morphing_basis_vector_3'> +1.4086223e-04 </wgt>
<wgt id='morphing_basis_vector_4'> +6.3258629e-05 </wgt>
<wgt id='morphing_basis_vector_5'> +9.6145903e-05 </wgt>
</rwgt>
</event>
<event>
 4      1 +5.9529000e-06 6.36168500e+02 7.81860800e-03 9.13804600e-02
        2 -1    0    0  501    0 +0.0000000000e+00 +0.0000000000e+00 +1.8389576008e+03 1.8389576008e+03 0.0000000000e+00 0.0000e+00 -1.0000e+00
       -2 -1    0    0    0  501 -0.0000000000e+00 -0.0000000000e+00 -5.5018995138e+01 5.5018995138e+01 0.0000000000e+00 0.0000e+00 1.0000e+00
      -13  1    1    2    0    0 +7.6277537859e+01 +2.7929788052e+02 +4.9979640452e+02 5.7760022058e+02 0.0000000000e+00 0.0000e+00 1.0000e+00
       13  1    1    2    0    0 -7.6277537859e+01 -2.7929788052e+02 +1.2841422011e+03 1.3163763754e+03 0.0000000000e+00 0.0000e+00 -1.0000e+00
<mgrwt>
<rscale>  0 0.63616853E+03</rscale>
<asrwt>0</asrwt>
<pdfrwt beam="1">  1        2 0.28291651E+00 0.63616853E+03</pdfrwt>
<pdfrwt beam="2">  1       -2 0.84644622E-02 0.63616853E+03</pdfrwt>
<totfact> 0.83282349E+02</totfact>
</mgrwt>
<rwgt>
<wgt id='morphing_basis_vector_1'> +1.9129423e-04 </wgt>
<wgt id='morphing_basis_vector_2'> +1.1302749e-04 </wgt>
<wgt id='morphing_basis_vector_3'> +1.5530371e-04 </wgt>
<wgt id='morphing_basis_vector_4'> +7.0427487e-05 </wgt>
<wgt id='morphing_basis_vector_5'> +1.0919888e-04 </wgt>
</rwgt>
</event>
<event>
 4      1 +5.9529000e-06 6.28017400e+02 7.81860800e-03 9.15168200e-02
        2 -1    0    0  501    0 +0.0000000000e+00 +0.0000000000e+00 +2.3147472066e+03 2.3147472066e+03 0.0000000000e+00 0.0000e+00 -1.0000e+00
       -2 -1    0    0    0  501 -0.0000000000e+00 -0.0000000000e+00 -4.2597073749e+01 4.2597073749e+01 0.0000000000e+00 0.0000e+00 1.0000e+00
      -13  1    1    2    0    0 -7.4080039174e+01 -3.0431755423e+02 +1.0517702414e+03 1.0974140817e+03 0.0000000000e+00 0.0000e+00 1.0000e+00
       13  1    1    2    0    0 +7.4080039174e+01 +3.0431755423e+02 +1.2203798914e+03 1.2599301986e+03 0.0000000000e+00 0.0000e+00 -1.0000e+00
<mgrwt>
<rscale>  0 0.62801738E+03</rscale>
<asrwt>0</asrwt>
<pdfrwt beam="1">  1        2 0.35611486E+00 0.62801738E+03</pdfrwt>
<pdfrwt beam="2">  1       -2 0.65533977E-02 0.62801738E+03</pdfrwt>
<totfact> 0.67416169E+02</totfact>
</mgrwt>
<rwgt>
<wgt id='morphing_basis_vector_1'> +1.8692330e-04 </wgt>
<wgt id='morphing_basis_vector_2'> +1.1926878e-04 </wgt>
<wgt id='morphing_basis_vector_3'> +1.4830000e-04 </wgt>
<wgt id='morphing_basis_vector_4'> +6.3096198e-05 </wgt>
<wgt id='morphing_basis_vector_5'> +1.0238279e-04 </wgt>
</rwgt>
</event>
<event>
 4      1 +5.9529000e-06 6.43619000e+02 7.81860800e-03 9.12576900e-02
        2 -1    0    0  501    0 +0.0000000000e+00 +0.0000000000e+00 +3.6277058040e+02 3.6277058040e+02 0.0000000000e+00 0.0000e+00 1.0000e+00
       -2 -1    0    0    0  501 -0.0000000000e+00 -0.0000000000e+00 -2.8547341781e+02 2.8547341781e+02 0.0000000000e+00 0.0000e+00 -1.0000e+00
      -13  1    1    2    0    0 -1.3362351253e+02 -2.0684568273e+02 -1.7001393763e+02 2.9924090387e+02 0.0000000000e+00 0.0000e+00 -1.0000e+00
       13  1    1    2    0    0 +1.3362351253e+02 +2.0684568273e+02 +2.4731110022e+02 3.4900309433e+02 0.0000000000e+00 0.0000e+00 1.0000e+00
<mgrwt>
<rscale>  0 0.64361901E+03</rscale>
<asrwt>0</asrwt>
<pdfrwt beam="1">  1        2 0.55810859E-01 0.64361901E+03</pdfrwt>
<pdfrwt beam="2">  1       -2 0.43918987E-01 0.64361901E+03</pdfrwt>
<totfact> 0.52828462E+02</totfact>
</mgrwt>
<rwgt>
<wgt id='morphing_basis_vector_1'> +1.9794125e-04 </wgt>
<wgt id='morphing_basis_vector_2'> +1.1494689e-04 </wgt>
<wgt id='morphing_basis_vector_3'> +1.6220202e-04 </wgt>
<wgt id='morphing_basis_vector_4'> +7.5272208e-05 </wgt>
<wgt id='morphing_basis_vector_5'> +1.1569412e-04 </wgt>
</rwgt>
</event>
<event>
 4      1 +5.9529000e-06 6.50585600e+02 7.81860800e-03 9.11444600e-02
        2 -1    0    0  501    0 +0.0000000000e+00 +0.0000000000e+00 +4.8786059401e+02 4.8786059401e+02 0.0000000000e+00 0.0000e+00 -1.0000e+00
       -2 -1    0    0    0  501 -0.0000000000e+00 -0.0000000000e+00 -2.1689678080e+02 2.1689678080e+02 0.0000000000e+00 0.0000e+00 1.0000e+00
      -13  1    1    2    0    0 -4.3078699639e+01 +6.7571616922e+01 -2.0603690240e+02 2.2107216678e+02 0.0000000000e+00 0.0000e+00 1.0000e+00
       13  1    1    2    0    0 +4.3078699639e+01 -6.7571616922e+01 +4.7700071561e+02 4.8368520803e+02 0.0000000000e+00 0.0000e+00 -1.0000e+00
<mgrwt>
<rscale>  0 0.65058556E+03</rscale>
<asrwt>0</asrwt>
<pdfrwt beam="1">  1        2 0.75055476E-01 0.65058556E+03</pdfrwt>
<pdfrwt beam="2">  1       -2 0.33368735E-01 0.65058556E+03</pdfrwt>
<totfact> 0.62690087E+02</totfact>
</mgrwt>
<rwgt>
<wgt id='morphing_basis_vector_1'> +2.0482917e-04 </wgt>
<wgt id='morphing_basis_vector_2'> +1.1830461e-04 </wgt>
<wgt id='morphing_basis_vector_3'> +1.6892624e-04 </wgt>
<wgt id='morphing_basis_vector_4'> +7.9562758e-05 </wgt>
<wgt id='morphing_basis_vector_5'> +1.2200641e-04 </wgt>
</rwgt>
</event>
<event>
 4      1 +5.9529000e-06 6.23864900e+02 7.81860800e-03 9.15871200e-02
        2 -1    0    0  501    0 +0.0000000000e+00 +0.0000000000e+00 +1.4027056020e+03 1.4027056020e+03 0.0000000000e+00 0.0000e+00 -1.0000e+00
       -2 -1    0    0    0  501 -0.0000000000e+00 -0.0000000000e+00 -6.9367265268e+01 6.9367265268e+01 0.0000000000e+00 0.0000e+00 1.0000e+00
      -13  1    1    2    0    0 +1.7318518664e+02 +1.2626923102e+02 +1.3189347158e+02 2.5166031752e+02 0.0000000000e+00 0.0000e+00 1.0000e+00
       13  1    1    2    0    0 -1.7318518664e+02 -1.2626923102e+02 +1.2014448652e+03 1.2204125497e+03 0.0000000000e+00 0.0000e+00 -1.0000e+00
<mgrwt>
<rscale>  0 0.62386489E+03</rscale>
<asrwt>0</asrwt>
<pdfrwt beam="1">  1        2 0.21580084E+00 0.62386489E+03</pdfrwt>
<pdfrwt beam="2">  1       -2 0.10671888E-01 0.62386489E+03</pdfrwt>
<totfact> 0.10046726E+03</totfact>
</mgrwt>
<rwgt>
<wgt id='morphing_basis_vector_1'> +1.7834529e-04 </wgt>
<wgt id='morphing_basis_vector_2'> +1.0252864e-04 </wgt>
<wgt id='morphing_basis_vector_3'> +1.4407331e-04 </wgt>
<wgt id='morphing_basis_vector_4'> +6.4956662e-05 </wgt>
<wgt id='morphing_basis_vector_5'> +9.9055216e-05 </wgt>
</rwgt>
</event>
<event>
 4      1 +5.9529000e-06 6.27147600e+02 7.81860800e-03 9.15315000e-02
        2 -1    0    0  501    0 +0.0000000000e+00 +0.0000000000e+00 +2.1223468715e+02 2.1223468715e+02 0.0000000000e+00 0.0000e+00 1.0000e+00
       -2 -1    0    0    0  501 -0.0000000000e+00 -0.0000000000e+00 -4.6330098655e+02 4.6330098655e+02 0.0000000000e+00 0.0000e+00 -1.0000e+00
      -13  1    1    2    0    0 -1.2794640174e+02 -5.8753752543e+01 -4.2734106603e+02 4.4993629757e+02 0.0000000000e+00 0.0000e+00 -1.0000e+00
       13  1    1    2    0    0 +1.2794640174e+02 +5.8753752543e+01 +1.7627476663e+02 2.2559937612e+02 0.0000000000e+00 0.0000e+00 1.0000e+00
<mgrwt>
<rscale>  0 0.62714764E+03</rscale>
<asrwt>0</asrwt>
<pdfrwt beam="1">  1        2 0.32651490E-01 0.62714764E+03</pdfrwt>
<pdfrwt beam="2">  1       -2 0.71277075E-01 0.62714764E+03</pdfrwt>
<totfact> 0.36591753E+02</totfact>
</mgrwt>
<rwgt>
<wgt id='morphing_basis_vector_1'> +1.8131387e-04 </wgt>
<wgt id='morphing_basis_vector_2'> +1.0397141e-04 </wgt>
<wgt id='morphing_basis_vector_3'> +1.4694803e-04 </wgt>
<wgt id='morphing_basis_vector_4'> +6.6745555e-05 </wgt>
<wgt id='morphing_basis_vector_5'> +1.0169672e-04 </wgt>
</rwgt>
</event>
<event>
 4      1 +5.9529000e-06 6.41143700e+02 7.81860800e-03 9.12982900e-02
        2 -1    0    0  501    0 +0.0000000000e+00 +0.0000000000e+00 +1.0687994292e+03 1.0687994292e+03 0.0000000000e+00 0.0000e+00 -1.0000e+00
       -2 -1    0    0    0  501 -0.0000000000e+00 -0.0000000000e+00 -9.6151166108e+01 9.6151166108e+01 0.0000000000e+00 0.0000e+00 1.0000e+00
      -13  1    1    2    0    0 -2.3626311164e+02 -6.8709630009e+01 +8.5969219198e+02 8.9421023039e+02 0.0000000000e+00 0.0000e+00 1.0000e+00
       13  1    1    2    0    0 +2.3626311164e+02 +6.8709630009e+01 +1.1295607106e+02 2.7074036487e+02 0.0000000000e+00 0.0000e+00 -1.0000e+00
<mgrwt>
<rscale>  0 0.64114370E+03</rscale>
<asrwt>0</asrwt>
<pdfrwt beam="1">  1        2 0.16443067E+00 0.64114370E+03</pdfrwt>
<pdfrwt beam="2">  1       -2 0.14792488E-01 0.64114370E+03</pdfrwt>
<totfact> 0.92687686E+02</totfact>
</mgrwt>
<rwgt>
<wgt id='morphing_basis_vector_1'> +2.4354800e-04 </wgt>
<wgt id='morphing_basis_vector_2'> +2.6230770e-04 </wgt>
<wgt id='morphing_basis_vector_3'> +1.6783609e-04 </wgt>
<wgt id='morphing_basis_vector_4'> +3.0783491e-05 </wgt>
<wgt id='morphing_basis_vector_5'> +1.1307993e-04 </wgt>
</rwgt>
</event>
<event>
 4      1 +5.9529000e-06 7.48870700e+02 7.81860800e-03 8.96892900e-02
        2 -1    0    0  501    0 +0.0000000000e+00 +0.0000000000e+00 +7.4762208392e+02 7.4762208392e+02 0.0000000000e+00 0.0000e+00 -1.0000e+00
       -2 -1    0    0    0  501 -0.0000000000e+00 -0.0000000000e+00 -1.8753035230e+02 1.8753035230e+02 0.0000000000e+00 0.0000e+00 1.0000e+00
      -13  1    1    2    0    0 +2.0516909837e+02 -8.9588543541e+01 -9.4748498440e+01 2.4310027564e+02 0.0000000000e+00 0.0000e+00 1.0000e+00
       13  1    1    2    0    0 -2.0516909837e+02 +8.9588543541e+01 +6.5484023006e+02 6.9205216058e+02 0.0000000000e+00 0.0000e+00 -1.0000e+00
<mgrwt>
<rscale>  0 0.74887070E+03</rscale>
<asrwt>0</asrwt>
<pdfrwt beam="1">  1        2 0.11501878E+00 0.74887070E+03</pdfrwt>
<pdfrwt beam="2">  1       -2 0.28850824E-01 0.74887070E+03</pdfrwt>
<totfact> 0.48834587E+02</totfact>
</mgrwt>
<rwgt>
<wgt id='morphing_basis_vector_1'> +3.3152335e-04 </wgt>
<wgt id='morphing_basis_vector_2'> +1.9746455e-04 </wgt>
<wgt id='morphing_basis_vector_3'> +2.9039905e-04 </wgt>
<wgt id='morphing_basis_vector_4'> +1.5305547e-04 </wgt>
<wgt id='morphing_basis_vector_5'> +2.3900769e-04 </wgt>
</rwgt>
</event>
<event>
 4      1 +5.9529000e-06 6.64655900e+02 7.81860800e-03 9.09202300e-02
        2 -1    0    0  501    0 +0.0000000000e+00 +0.0000000000e+00 +8.6388532883e+02 8.6388532883e+02 0.0000000000e+00 0.0000e+00 -1.0000e+00
       -2 -1    0    0    0  501 -0.0000000000e+00 -0.0000000000e+00 -1.2784321709e+02 1.2784321709e+02 0.0000000000e+00 0.0000e+00 1.0000e+00
      -13  1    1    2    0    0 +1.8476505111e+02 +2.4847649360e+02 +1.8795819474e+02 3.6222503358e+02 0.0000000000e+00 0.0000e+00 1.0000e+00
       13  1    1    2    0    0 -1.8476505111e+02 -2.4847649360e+02 +5.4808391699e+02 6.2950351234e+02 0.0000000000e+00 0.0000e+00 -1.0000e+00
<mgrwt>
<rscale>  0 0.66465594E+03</rscale>
<asrwt>0</asrwt>
<pdfrwt beam="1">  1        2 0.13290543E+00 0.66465594E+03</pdfrwt>
<pdfrwt beam="2">  1       -2 0.19668188E-01 0.66465594E+03</pdfrwt>
<totfact> 0.78127364E+02</totfact>
</mgrwt>
<rwgt>
<wgt id='morphing_basis_vector_1'> +2.2188002e-04 </wgt>
<wgt id='morphing_basis_vector_2'> +1.3321757e-04 </wgt>
<wgt id='morphing_basis_vector_3'> +1.8373911e-04 </wgt>
<wgt id='morphing_basis_vector_4'> +8.6331998e-05 </wgt>
<wgt id='morphing_basis_vector_5'> +1.3545072e-04 </wgt>
</rwgt>
</event>
<event>
 4      1 +5.9529000e-06 6.97109100e+02 7.81860800e-03 9.04244500e-02
        2 -1    0    0  501    0 +0.0000000000e+00 +0.0000000000e+00 +4.5842142270e+02 4.5842142270e+02 0.0000000000e+00 0.0000e+00 -1.0000e+00
       -2 -1    0    0    0  501 -0.0000000000e+00 -0.0000000000e+00 -2.6501877524e+02 2.6501877524e+02 0.0000000000e+00 0.0000e+00 1.0000e+00
      -13  1    1    2    0    0 +1.1209723241e+02 -3.5255459106e+01 -2.4384210991e+02 2.7068009065e+02 0.0000000000e+00 0.0000e+00 1.0000e+00
       13  1    1    2    0    0 -1.1209723241e+02 +3.5255459106e+01 +4.3724475736e+02 4.5276010729e+02 0.0000000000e+00 0.0000e+00 -1.0000e+00
<mgrwt>
<rscale>  0 0.69710913E+03</rscale>
<asrwt>0</asrwt>
<pdfrwt beam="1">  1        2 0.70526373E-01 0.69710913E+03</pdfrwt>
<pdfrwt beam="2">  1       -2 0.40772119E-01 0.69710913E+03</pdfrwt>
<totfact> 0.46588429E+02</totfact>
</mgrwt>
<rwgt>
<wgt id='morphing_basis_vector_1'> +2.5876176e-04 </wgt>
<wgt id='morphing_basis_vector_2'> +1.5163458e-04 </wgt>
<wgt id='morphing_basis_vector_3'> +2.2010341e-04 </wgt>
<wgt id='morphing_basis_vector_4'> +1.1010677e-04 </wgt>
<wgt id='morphing_basis_vector_5'> +1.7051032e-04 </wgt>
</rwgt>
</event>
<event>
 4      1 +5.9529000e-06 6.55289600e+02 7.81860800e-03 9.10688400e-02
        2 -1    0    0  501    0 +0.0000000000e+00 +0.0000000000e+00 +5.3852621177e+02 5.3852621177e+02 0.0000000000e+00 0.0000e+00 -1.0000e+00
       -2 -1    0    0    0  501 -0.0000000000e+00 -0.0000000000e+00 -1.9934239339e+02 1.9934239339e+02 0.0000000000e+00 0.0000e+00 1.0000e+00
      -13  1    1    2    0    0 +3.0235242354e+02 +4.5675985443e+01 +3.7085620932e+01 3.0802374412e+02 0.0000000000e+00 0.0000e+00 1.0000e+00
       13  1    1    2    0    0 -3.0235242354e+02 -4.5675985443e+01 +3.0209819744e+02 4.2984486104e+02 0.0000000000e+00 0.0000e+00 -1.0000e+00
<mgrwt>
<rscale>  0 0.65528957E+03</rscale>
<asrwt>0</asrwt>
<pdfrwt beam="1">  1        2 0.82850186E-01 0.65528957E+03</pdfrwt>
<pdfrwt beam="2">  1       -2 0.30668061E-01 0.65528957E+03</pdfrwt>
<totfact> 0.65053399E+02</totfact>
</mgrwt>
<rwgt>
<wgt id='morphing_basis_vector_1'> +2.1156773e-04 </wgt>
<wgt id='morphing_basis_vector_2'> +1.2673702e-04 </wgt>
<wgt id='morphing_basis_vector_3'> +1.7400056e-04 </wgt>
<wgt id='morphing_basis_vector_4'> +8.0709644e-05 </wgt>
<wgt id='morphing_basis_vector_5'> +1.2637727e-04 </wgt>
</rwgt>
</event>
<event>
 4      1 +5.9529000e-06 6.32295900e+02 7.81860800e-03 9.14449800e-02
        2 -1    0    0  501    0 +0.0000000000e+00 +0.0000000000e+00 +8.4366186616e+02 8.4366186616e+02 0.0000000000e+00 0.0000e+00 -1.0000e+00
       -2 -1    0    0    0  501 -0.0000000000e+00 -0.0000000000e+00 -1.1847107410e+02 1.1847107410e+02 0.0000000000e+00 0.0000e+00 1.0000e+00
      -13  1    1    2    0    0 +2.1729202392e+02 -1.0154957206e+02 +4.9189506367e+01 2.4484228961e+02 0.0000000000e+00 0.0000e+00 1.0000e+00
       13  1    1    2    0    0 -2.1729202392e+02 +1.0154957206e+02 +6.7600128569e+02 7.1729065065e+02 0.0000000000e+00 0.0000e+00 -1.0000e+00
<mgrwt>
<rscale>  0 0.63229590E+03</rscale>
<asrwt>0</asrwt>
<pdfrwt beam="1">  1        2 0.12979413E+00 0.63229590E+03</pdfrwt>
<pdfrwt beam="2">  1       -2 0.18226320E-01 0.63229590E+03</pdfrwt>
<totfact> 0.91480232E+02</totfact>
</mgrwt>
<rwgt>
<wgt id='morphing_basis_vector_1'> +1.8657880e-04 </wgt>
<wgt id='morphing_basis_vector_2'> +1.0790609e-04 </wgt>
<wgt id='morphing_basis_vector_3'> +1.5161200e-04 </wgt>
<wgt id='morphing_basis_vector_4'> +6.9165088e-05 </wgt>
<wgt id='morphing_basis_vector_5'> +1.0593551e-04 </wgt>
</rwgt>
</event>
<event>
 4      1 +5.9529000e-06 7.19392500e+02 7.81860800e-03 9.01000100e-02
        2 -1    0    0  501    0 +0.0000000000e+00 +0.0000000000e+00 +3.0621631462e+02 3.0621631462e+02 0.0000000000e+00 0.0000e+00 1.0000e+00
       -2 -1    0    0    0  501 -0.0000000000e+00 -0.0000000000e+00 -4.2251633724e+02 4.2251633724e+02 0.0000000000e+00 0.0000e+00 -1.0000e+00
      -13  1    1    2    0    0 -3.2974314599e+02 +1.2431654914e+02 +1.4870907261e+01 3.5271275934e+02 0.0000000000e+00 0.0000e+00 -1.0000e+00
       13  1    1    2    0    0 +3.2974314599e+02 -1.2431654914e+02 -1.3117092988e+02 3.7601989251e+02 0.0000000000e+00 0.0000e+00 1.0000e+00
<mgrwt>
<rscale>  0 0.71939251E+03</rscale>
<asrwt>0</asrwt>
<pdfrwt beam="1">  1        2 0.47110202E-01 0.71939251E+03</pdfrwt>
<pdfrwt beam="2">  1       -2 0.65002513E-01 0.71939251E+03</pdfrwt>
<totfact> 0.29245406E+02</totfact>
</mgrwt>
<rwgt>
<wgt id='morphing_basis_vector_1'> +3.0848109e-04 </wgt>
<wgt id='morphing_basis_vector_2'> +2.3218065e-04 </wgt>
<wgt id='morphing_basis_vector_3'> +2.5662946e-04 </wgt>
<wgt id='morphing_basis_vector_4'> +1.0525898e-04 </wgt>
<wgt id='morphing_basis_vector_5'> +1.9732918e-04 </wgt>
</rwgt>
</event>
<event>
 4      1 +5.9529000e-06 6.28385000e+02 7.81860800e-03 9.15106200e-02
        2 -1    0    0  501    0 +0.0000000000e+00 +0.0000000000e+00 +9.3347542659e+02 9.3347542659e+02 0.0000000000e+00 0.0000e+00 1.0000e+00
       -2 -1    0    0    0  501 -0.0000000000e+00 -0.0000000000e+00 -1.0575204072e+02 1.0575204072e+02 0.0000000000e+00 0.0000e+00 -1.0000e+00
      -13  1    1    2    0    0 +1.3690337498e+02 -1.8620805719e+02 +7.6585830604e+02 7.9997182423e+02 0.0000000000e+00 0.0000e+00 1.0000e+00
       13  1    1    2    0    0 -1.3690337498e+02 +1.8620805719e+02 +6.1865079834e+01 2.3925564308e+02 0.0000000000e+00 0.0000e+00 -1.0000e+00
<mgrwt>
<rscale>  0 0.62838501E+03</rscale>
<asrwt>0</asrwt>
<pdfrwt beam="1">  1        2 0.14361160E+00 0.62838501E+03</pdfrwt>
<pdfrwt beam="2">  1       -2 0.16269545E-01 0.62838501E+03</pdfrwt>
<totfact> 0.96288805E+02</totfact>
</mgrwt>
<rwgt>
<wgt id='morphing_basis_vector_1'> +2.3124137e-04 </wgt>
<wgt id='morphing_basis_vector_2'> +2.5560698e-04 </wgt>
<wgt id='morphing_basis_vector_3'> +1.5401598e-04 </wgt>
<wgt id='morphing_basis_vector_4'> +2.5536350e-05 </wgt>
<wgt id='morphing_basis_vector_5'> +1.0247616e-04 </wgt>
</rwgt>
</event>
<event>
 4      1 +5.9529000e-06 6.33500500e+02 7.81860800e-03 9.14248600e-02
        2 -1    0    0  501    0 +0.0000000000e+00 +0.0000000000e+00 +7.7958142504e+01 7.7958142504e+01 0.0000000000e+00 0.0000e+00 -1.0000e+00
       -2 -1    0    0    0  501 -0.0000000000e+00 -0.0000000000e+00 -1.2869819450e+03 1.2869819450e+03 0.0000000000e+00 0.0000e+00 1.0000e+00
      -13  1    1    2    0    0 +1.1280835494e+02 +2.9230730595e+02 -7.0468192945e+02 7.7119770990e+02 0.0000000000e+00 0.0000e+00 1.0000e+00
       13  1    1    2    0    0 -1.1280835494e+02 -2.9230730595e+02 -5.0434187302e+02 5.9374237758e+02 0.0000000000e+00 0.0000e+00 -1.0000e+00
<mgrwt>
<rscale>  0 0.63350050E+03</rscale>
<asrwt>0</asrwt>
<pdfrwt beam="1">  1        2 0.11993561E-01 0.63350050E+03</pdfrwt>
<pdfrwt beam="2">  1       -2 0.19799721E+00 0.63350050E+03</pdfrwt>
<totfact> 0.83478607E+01</totfact>
</mgrwt>
<rwgt>
<wgt id='morphing_basis_vector_1'> +1.9116202e-04 </wgt>
<wgt id='morphing_basis_vector_2'> +1.1916175e-04 </wgt>
<wgt id='morphing_basis_vector_3'> +1.5318850e-04 </wgt>
<wgt id='morphing_basis_vector_4'> +6.6826862e-05 </wgt>
<wgt id='morphing_basis_vector_5'> +1.0692341e-04 </wgt>
</rwgt>
</event>
<event>
 4      1 +5.9529000e-06 6.81370200e+02 7.81860800e-03 9.06612900e-02
        2 -1    0    0  501    0 +0.0000000000e+00 +0.0000000000e+00 +4.4288787630e+02 4.4288787630e+02 0.0000000000e+00 0.0000e+00 1.0000e+00
       -2 -1    0    0    0  501 -0.0000000000e+00 -0.0000000000e+00 -2.6206705857e+02 2.6206705857e+02 0.0000000000e+00 0.0000e+00 -1.0000e+00
      -13  1    1    2    0    0 +1.5847253843e+02 -2.8706610220e+02 +1.8605389221e+02 3.7701000421e+02 0.0000000000e+00 0.0000e+00 -1.0000e+00
       13  1    1    2    0    0 -1.5847253843e+02 +2.8706610220e+02 -5.2330744720e+00 3.2794493065e+02 0.0000000000e+00 0.0000e+00 1.0000e+00
<mgrwt>
<rscale>  0 0.68137016E+03</rscale>
<asrwt>0</asrwt>
<pdfrwt beam="1">  1        2 0.68136596E-01 0.68137016E+03</pdfrwt>
<pdfrwt beam="2">  1       -2 0.40318009E-01 0.68137016E+03</pdfrwt>
<totfact> 0.49484471E+02</totfact>
</mgrwt>
<rwgt>
<wgt id='morphing_basis_vector_1'> +2.6048738e-04 </wgt>
<wgt id='morphing_basis_vector_2'> +2.0473530e-04 </wgt>
<wgt id='morphing_basis_vector_3'> +2.0781033e-04 </wgt>
<wgt id='morphing_basis_vector_4'> +7.7759266e-05 </wgt>
<wgt id='morphing_basis_vector_5'> +1.5235319e-04 </wgt>
</rwgt>
</event>
<event>
 4      1 +5.9529000e-06 6.53821900e+02 7.81860800e-03 9.10923600e-02
        2 -1    0    0  501    0 +0.0000000000e+00 +0.0000000000e+00 +1.1762889864e+03 1.1762889864e+03 0.0000000000e+00 0.0000e+00 -1.0000e+00
       -2 -1    0    0    0  501 -0.0000000000e+00 -0.0000000000e+00 -9.0854192096e+01 9.0854192096e+01 0.0000000000e+00 0.0000e+00 1.0000e+00
      -13  1    1    2    0    0 -3.2115959428e+02 -5.9463777362e+01 +5.6952706585e+02 6.5653675035e+02 0.0000000000e+00 0.0000e+00 1.0000e+00
       13  1    1    2    0    0 +3.2115959428e+02 +5.9463777362e+01 +5.1590772843e+02 6.1060642813e+02 0.0000000000e+00 0.0000e+00 -1.0000e+00
<mgrwt>
<rscale>  0 0.65382195E+03</rscale>
<asrwt>0</asrwt>
<pdfrwt beam="1">  1        2 0.18096753E+00 0.65382195E+03</pdfrwt>
<pdfrwt beam="2">  1       -2 0.13977569E-01 0.65382195E+03</pdfrwt>
<totfact> 0.87735716E+02</totfact>
</mgrwt>
<rwgt>
<wgt id='morphing_basis_vector_1'> +2.1661034e-04 </wgt>
<wgt id='morphing_basis_vector_2'> +1.4622095e-04 </wgt>
<wgt id='morphing_basis_vector_3'> +1.7388956e-04 </wgt>
<wgt id='morphing_basis_vector_4'> +7.3683551e-05 </wgt>
<wgt id='morphing_basis_vector_5'> +1.2490916e-04 </wgt>
</rwgt>
</event>
<event>
 4      1 +5.9529000e-06 6.56522900e+02 7.81860800e-03 9.10491200e-02
        2 -1    0    0  501    0 +0.0000000000e+00 +0.0000000000e+00 +1.0423715798e+03 1.0423715798e+03 0.0000000000e+00 0.0000e+00 -1.0000e+00
       -2 -1    0    0    0  501 -0.0000000000e+00 -0.0000000000e+00 -1.0337540104e+02 1.0337540104e+02 0.0000000000e+00 0.0000e+00 1.0000e+00
      -13  1    1    2    0    0 +2.5947700966e+02 -3.4829074518e+01 +8.1508756239e+02 8.5610111397e+02 0.0000000000e+00 0.0000e+00 1.0000e+00
       13  1    1    2    0    0 -2.5947700966e+02 +3.4829074518e+01 +1.2390861635e+02 2.8964586685e+02 0.0000000000e+00 0.0000e+00 -1.0000e+00
<mgrwt>
<rscale>  0 0.65652290E+03</rscale>
<asrwt>0</asrwt>
<pdfrwt beam="1">  1        2 0.16036485E+00 0.65652290E+03</pdfrwt>
<pdfrwt beam="2">  1       -2 0.15903909E-01 0.65652290E+03</pdfrwt>
<totfact> 0.85472836E+02</totfact>
</mgrwt>
<rwgt>
<wgt id='morphing_basis_vector_1'> +2.5949636e-04 </wgt>
<wgt id='morphing_basis_vector_2'> +2.7159710e-04 </wgt>
<wgt id='morphing_basis_vector_3'> +1.8536015e-04 </wgt>
<wgt id='morphing_basis_vector_4'> +3.7682343e-05 </wgt>
<wgt id='morphing_basis_vector_5'> +1.2689929e-04 </wgt>
</rwgt>
</event>
<event>
 4      1 +5.9529000e-06 6.49516800e+02 7.81860800e-03 9.11617300e-02
        2 -1    0    0  501    0 +0.0000000000e+00 +0.0000000000e+00 +1.0056060043e+03 1.0056060043e+03 0.0000000000e+00 0.0000e+00 -1.0000e+00
       -2 -1    0    0    0  501 -0.0000000000e+00 -0.0000000000e+00 -1.0488006710e+02 1.0488006710e+02 0.0000000000e+00 0.0000e+00 1.0000e+00
      -13  1    1    2    0    0 +2.7983164064e+02 +4.8646245931e+01 +1.8114009350e+02 3.3687377134e+02 0.0000000000e+00 0.0000e+00 1.0000e+00
       13  1    1    2    0    0 -2.7983164064e+02 -4.8646245931e+01 +7.1958584367e+02 7.7361230003e+02 0.0000000000e+00 0.0000e+00 -1.0000e+00
<mgrwt>
<rscale>  0 0.64951682E+03</rscale>
<asrwt>0</asrwt>
<pdfrwt beam="1">  1        2 0.15470861E+00 0.64951682E+03</pdfrwt>
<pdfrwt beam="2">  1       -2 0.16135396E-01 0.64951682E+03</pdfrwt>
<totfact> 0.87931132E+02</totfact>
</mgrwt>
<rwgt>
<wgt id='morphing_basis_vector_1'> +2.0462415e-04 </wgt>
<wgt id='morphing_basis_vector_2'> +1.2045608e-04 </wgt>
<wgt id='morphing_basis_vector_3'> +1.6804941e-04 </wgt>
<wgt id='morphing_basis_vector_4'> +7.8098411e-05 </wgt>
<wgt id='morphing_basis_vector_5'> +1.2101254e-04 </wgt>
</rwgt>
</event>
<event>
 4      1 +5.9529000e-06 7.42309300e+02 7.81860800e-03 8.97789500e-02
        2 -1    0    0  501    0 +0.0000000000e+00 +0.0000000000e+00 +1.2644555393e+03 1.2644555393e+03 0.0000000000e+00 0.0000e+00 1.0000e+00
       -2 -1    0    0    0  501 -0.0000000000e+00 -0.0000000000e+00 -1.0894472146e+02 1.0894472146e+02 0.0000000000e+00 0.0000e+00 -1.0000e+00
      -13  1    1    2    0    0 +2.2182152236e+02 +2.9233234383e+02 +4.7486236192e+02 6.0013102719e+02 0.0000000000e+00 0.0000e+00 -1.0000e+00
       13  1    1    2    0    0 -2.2182152236e+02 -2.9233234383e+02 +6.8064845598e+02 7.7326923361e+02 0.0000000000e+00 0.0000e+00 1.0000e+00
<mgrwt>
<rscale>  0 0.74230925E+03</rscale>
<asrwt>0</asrwt>
<pdfrwt beam="1">  1        2 0.19453161E+00 0.74230925E+03</pdfrwt>
<pdfrwt beam="2">  1       -2 0.16760727E-01 0.74230925E+03</pdfrwt>
<totfact> 0.57961221E+02</totfact>
</mgrwt>
<rwgt>
<wgt id='morphing_basis_vector_1'> +3.2778257e-04 </wgt>
<wgt id='morphing_basis_vector_2'> +2.1043188e-04 </wgt>
<wgt id='morphing_basis_vector_3'> +2.8354510e-04 </wgt>
<wgt id='morphing_basis_vector_4'> +1.3982153e-04 </wgt>
<wgt id='morphing_basis_vector_5'> +2.2915164e-04 </wgt>
</rwgt>
</event>
<event>
 4      1 +5.9529000e-06 6.56721500e+02 7.81860800e-03 9.10459500e-02
        2 -1    0    0  501    0 +0.0000000000e+00 +0.0000000000e+00 +1.7708646702e+03 1.7708646702e+03 0.0000000000e+00 0.0000e+00 -1.0000e+00
       -2 -1    0    0    0  501 -0.0000000000e+00 -0.0000000000e+00 -6.0885956381e+01 6.0885956381e+01 0.0000000000e+00 0.0000e+00 1.0000e+00
      -13  1    1    2    0    0 +2.5951776076e+02 +1.8952657600e+00 +2.9389032927e+02 3.9207727021e+02 0.0000000000e+00 0.0000e+00 1.0000e+00
       13  1    1    2    0    0 -2.5951776076e+02 -1.8952657600e+00 +1.4160883846e+03 1.4396733564e+03 0.0000000000e+00 0.0000e+00 -1.0000e+00
<mgrwt>
<rscale>  0 0.65672152E+03</rscale>
<asrwt>0</asrwt>
<pdfrwt beam="1">  1        2 0.27244068E+00 0.65672152E+03</pdfrwt>
<pdfrwt beam="2">  1       -2 0.93670716E-02 0.65672152E+03</pdfrwt>
<totfact> 0.77375120E+02</totfact>
</mgrwt>
<rwgt>
<wgt id='morphing_basis_vector_1'> +2.1183679e-04 </wgt>
<wgt id='morphing_basis_vector_2'> +1.2374760e-04 </wgt>
<wgt id='morphing_basis_vector_3'> +1.7518411e-04 </wgt>
<wgt id='morphing_basis_vector_4'> +8.2756151e-05 </wgt>
<wgt id='morphing_basis_vector_5'> +1.2775373e-04 </wgt>
</rwgt>
</event>
<event>
 4      1 +5.9529000e-06 6.28615400e+02 7.81860800e-03 9.15067400e-02
        2 -1    0    0  501    0 +0.0000000000e+00 +0.0000000000e+00 +1.6750976239e+03 1.6750976239e+03 0.0000000000e+00 0.0000e+00 1.0000e+00
       -2 -1    0    0    0  501 -0.0000000000e+00 -0.0000000000e+00 -5.8975272321e+01 5.8975272321e+01 0.0000000000e+00 0.0000e+00 -1.0000e+00
      -13  1    1    2    0    0 -6.2756595167e+01 +3.0531573968e+02 +6.9657826395e+02 7.6313653362e+02 0.0000000000e+00 0.0000e+00 -1.0000e+00
       13  1    1    2    0    0 +6.2756595167e+01 -3.0531573968e+02 +9.1954408767e+02 9.7093636265e+02 0.0000000000e+00 0.0000e+00 1.0000e+00
<mgrwt>
<rscale>  0 0.62861543E+03</rscale>
<asrwt>0</asrwt>
<pdfrwt beam="1">  1        2 0.25770729E+00 0.62861543E+03</pdfrwt>
<pdfrwt beam="2">  1       -2 0.90731201E-02 0.62861543E+03</pdfrwt>
<totfact> 0.91855913E+02</totfact>
</mgrwt>
<rwgt>
<wgt id='morphing_basis_vector_1'> +1.8658024e-04 </wgt>
<wgt id='morphing_basis_vector_2'> +1.1677799e-04 </wgt>
<wgt id='morphing_basis_vector_3'> +1.4873055e-04 </wgt>
<wgt id='morphing_basis_vector_4'> +6.4183988e-05 </wgt>
<wgt id='morphing_basis_vector_5'> +1.0287496e-04 </wgt>
</rwgt>
</event>
<event>
 4      1 +5.9529000e-06 6.64072100e+02 7.81860800e-03 9.09294200e-02
        2 -1    0    0  501    0 +0.0000000000e+00 +0.0000000000e+00 +7.8837289956e+02 7.8837289956e+02 0.0000000000e+00 0.0000e+00 1.0000e+00
       -2 -1    0    0    0  501 -0.0000000000e+00 -0.0000000000e+00 -1.3984237265e+02 1.3984237265e+02 0.0000000000e+00 0.0000e+00 -1.0000e+00
      -13  1    1    2    0    0 +1.0613544462e+02 +8.7884226600e+01 +7.4651820180e+02 7.5912963024e+02 0.0000000000e+00 0.0000e+00 1.0000e+00
       13  1    1    2    0    0 -1.0613544462e+02 -8.7884226600e+01 -9.7987674885e+01 1.6908564197e+02 0.0000000000e+00 0.0000e+00 -1.0000e+00
<mgrwt>
<rscale>  0 0.66407209E+03</rscale>
<asrwt>0</asrwt>
<pdfrwt beam="1">  1        2 0.12128814E+00 0.66407209E+03</pdfrwt>
<pdfrwt beam="2">  1       -2 0.21514212E-01 0.66407209E+03</pdfrwt>
<totfact> 0.75705559E+02</totfact>
</mgrwt>
<rwgt>
<wgt id='morphing_basis_vector_1'> +2.9731113e-04 </wgt>
<wgt id='morphing_basis_vector_2'> +3.6787988e-04 </wgt>
<wgt id='morphing_basis_vector_3'> +2.0144527e-04 </wgt>
<wgt id='morphing_basis_vector_4'> +1.2966124e-05 </wgt>
<wgt id='morphing_basis_vector_5'> +1.3363238e-04 </wgt>
</rwgt>
</event>
<event>
 4      1 +5.9529000e-06 6.47439600e+02 7.81860800e-03 9.11954100e-02
        2 -1    0    0  501    0 +0.0000000000e+00 +0.0000000000e+00 +5.1251651467e+02 5.1251651467e+02 0.0000000000e+00 0.0000e+00 -1.0000e+00
       -2 -1    0    0    0  501 -0.0000000000e+00 -0.0000000000e+00 -2.0447047859e+02 2.0447047859e+02 0.0000000000e+00 0.0000e+00 1.0000e+00
      -13  1    1    2    0    0 +6.3041745415e+01 -1.8382066983e+02 -1.3268991912e+02 2.3531025256e+02 0.0000000000e+00 0.0000e+00 1.0000e+00
       13  1    1    2    0    0 -6.3041745415e+01 +1.8382066983e+02 +4.4073595520e+02 4.8167674070e+02 0.0000000000e+00 0.0000e+00 -1.0000e+00
<mgrwt>
<rscale>  0 0.64743956E+03</rscale>
<asrwt>0</asrwt>
<pdfrwt beam="1">  1        2 0.78848695E-01 0.64743956E+03</pdfrwt>
<pdfrwt beam="2">  1       -2 0.31456997E-01 0.64743956E+03</pdfrwt>
<totfact> 0.65838582E+02</totfact>
</mgrwt>
<rwgt>
<wgt id='morphing_basis_vector_1'> +2.0162818e-04 </wgt>
<wgt id='morphing_basis_vector_2'> +1.1657110e-04 </wgt>
<wgt id='morphing_basis_vector_3'> +1.6585264e-04 </wgt>
<wgt id='morphing_basis_vector_4'> +7.7664333e-05 </wgt>
<wgt id='morphing_basis_vector_5'> +1.1912723e-04 </wgt>
</rwgt>
</event>
<event>
 4      1 +5.9529000e-06 6.43982100e+02 7.81860800e-03 9.12517500e-02
        2 -1    0    0  501    0 +0.0000000000e+00 +0.0000000000e+00 +1.4104160399e+03 1.4104160399e+03 0.0000000000e+00 0.0000e+00 -1.0000e+00
       -2 -1    0    0    0  501 -0.0000000000e+00 -0.0000000000e+00 -7.3508972223e+01 7.3508972223e+01 0.0000000000e+00 0.0000e+00 1.0000e+00
      -13  1    1    2    0    0 +4.4014786554e+00 -3.1002311229e+02 +4.6830414452e+02 5.6164265770e+02 0.0000000000e+00 0.0000e+00 1.0000e+00
       13  1    1    2    0    0 -4.4014786554e+00 +3.1002311229e+02 +8.6860292315e+02 9.2228235442e+02 0.0000000000e+00 0.0000e+00 -1.0000e+00
<mgrwt>
<rscale>  0 0.64398209E+03</rscale>
<asrwt>0</asrwt>
<pdfrwt beam="1">  1        2 0.21698706E+00 0.64398209E+03</pdfrwt>
<pdfrwt beam="2">  1       -2 0.11309074E-01 0.64398209E+03</pdfrwt>
<totfact> 0.90718694E+02</totfact>
</mgrwt>
<rwgt>
<wgt id='morphing_basis_vector_1'> +2.0036606e-04 </wgt>
<wgt id='morphing_basis_vector_2'> +1.2152479e-04 </wgt>
<wgt id='morphing_basis_vector_3'> +1.6291128e-04 </wgt>
<wgt id='morphing_basis_vector_4'> +7.3619835e-05 </wgt>
<wgt id='morphing_basis_vector_5'> +1.1599688e-04 </wgt>
</rwgt>
</event>
<event>
 4      1 +5.9529000e-06 6.45631500e+02 7.81860800e-03 9.12248300e-02
        2 -1    0    0  501    0 +0.0000000000e+00 +0.0000000000e+00 +4.4349361771e+02 4.4349361771e+02 0.0000000000e+00 0.0000e+00 -1.0000e+00
       -2 -1    0    0    0  501 -0.0000000000e+00 -0.0000000000e+00 -2.3497524169e+02 2.3497524169e+02 0.0000000000e+00 0.0000e+00 1.0000e+00
      -13  1    1    2    0    0 -1.5680704721e+01 -3.1815328132e+02 +4.9225526704e+01 3.2232056619e+02 0.0000000000e+00 0.0000e+00 1.0000e+00
       13  1    1    2    0    0 +1.5680704721e+01 +3.1815328132e+02 +1.5929284931e+02 3.5614829321e+02 0.0000000000e+00 0.0000e+00 -1.0000e+00
<mgrwt>
<rscale>  0 0.64563154E+03</rscale>
<asrwt>0</asrwt>
<pdfrwt beam="1">  1        2 0.68229787E-01 0.64563154E+03</pdfrwt>
<pdfrwt beam="2">  1       -2 0.36150037E-01 0.64563154E+03</pdfrwt>
<totfact> 0.60447982E+02</totfact>
</mgrwt>
<rwgt>
<wgt id='morphing_basis_vector_1'> +2.0339769e-04 </wgt>
<wgt id='morphing_basis_vector_2'> +1.2669140e-04 </wgt>
<wgt id='morphing_basis_vector_3'> +1.6475574e-04 </wgt>
<wgt id='morphing_basis_vector_4'> +7.3325859e-05 </wgt>
<wgt id='morphing_basis_vector_5'> +1.1745713e-04 </wgt>
</rwgt>
</event>
<event>
 4      1 +5.9529000e-06 6.30591600e+02 7.81860800e-03 9.14735200e-02
        2 -1    0    0  501    0 +0.0000000000e+00 +0.0000000000e+00 +2.2916186309e+02 2.2916186309e+02 0.0000000000e+00 0.0000e+00 1.0000e+00
       -2 -1    0    0    0  501 -0.0000000000e+00 -0.0000000000e+00 -4.3380453646e+02 4.3380453646e+02 0.0000000000e+00 0.0000e+00 -1.0000e+00
      -13  1    1    2    0    0 +2.6366315525e+02 +1.5043777391e+02 -1.2730903649e+01 3.0382866745e+02 0.0000000000e+00 0.0000e+00 1.0000e+00
       13  1    1    2    0    0 -2.6366315525e+02 -1.5043777391e+02 -1.9191176972e+02 3.5913773210e+02 0.0000000000e+00 0.0000e+00 -1.0000e+00
<mgrwt>
<rscale>  0 0.63059165E+03</rscale>
<asrwt>0</asrwt>
<pdfrwt beam="1">  1        2 0.35255672E-01 0.63059165E+03</pdfrwt>
<pdfrwt beam="2">  1       -2 0.66739158E-01 0.63059165E+03</pdfrwt>
<totfact> 0.38544477E+02</totfact>
</mgrwt>
<rwgt>
<wgt id='morphing_basis_vector_1'> +2.0068976e-04 </wgt>
<wgt id='morphing_basis_vector_2'> +1.5571290e-04 </wgt>
<wgt id='morphing_basis_vector_3'> +1.5211842e-04 </wgt>
<wgt id='morphing_basis_vector_4'> +5.4632002e-05 </wgt>
<wgt id='morphing_basis_vector_5'> +1.0443286e-04 </wgt>
</rwgt>
</event>
<event>
 4      1 +5.9529000e-06 6.33552400e+02 7.81860800e-03 9.14239900e-02
        2 -1    0    0  501    0 +0.0000000000e+00 +0.0000000000e+00 +3.8952448349e+02 3.8952448349e+02 0.0000000000e+00 0.0000e+00 -1.0000e+00
       -2 -1    0    0    0  501 -0.0000000000e+00 -0.0000000000e+00 -2.5761449155e+02 2.5761449155e+02 0.0000000000e+00 0.0000e+00 1.0000e+00
      -13  1    1    2    0    0 -3.6740193634e+00 -8.5649717752e+01 -2.4554017970e+02 2.6007566672e+02 0.0000000000e+00 0.0000e+00 1.0000e+00
       13  1    1    2    0    0 +3.6740193634e+00 +8.5649717752e+01 +3.7745017165e+02 3.8706330832e+02 0.0000000000e+00 0.0000e+00 -1.0000e+00
<mgrwt>
<rscale>  0 0.63355237E+03</rscale>
<asrwt>0</asrwt>
<pdfrwt beam="1">  1        2 0.59926844E-01 0.63355237E+03</pdfrwt>
<pdfrwt beam="2">  1       -2 0.39632999E-01 0.63355237E+03</pdfrwt>
<totfact> 0.59109278E+02</totfact>
</mgrwt>
<rwgt>
<wgt id='morphing_basis_vector_1'> +1.8749889e-04 </wgt>
<wgt id='morphing_basis_vector_2'> +1.0769686e-04 </wgt>
<wgt id='morphing_basis_vector_3'> +1.5271547e-04 </wgt>
<wgt id='morphing_basis_vector_4'> +7.0099032e-05 </wgt>
<wgt id='morphing_basis_vector_5'> +1.0699080e-04 </wgt>
</rwgt>
</event>
<event>
 4      1 +5.9529000e-06 7.47230800e+02 7.81860800e-03 8.97116100e-02
        2 -1    0    0  501    0 +0.0000000000e+00 +0.0000000000e+00 +2.2183821413e+03 2.2183821413e+03 0.0000000000e+00 0.0000e+00 -1.0000e+00
       -2 -1    0    0    0  501 -0.0000000000e+00 -0.0000000000e+00 -6.2923551018e+01 6.2923551018e+01 0.0000000000e+00 0.0000e+00 1.0000e+00
      -13  1    1    2    0    0 -4.2238907921e+01 +3.6913037519e+02 +9.5764365890e+02 1.0271916747e+03 0.0000000000e+00 0.0000e+00 1.0000e+00
       13  1    1    2    0    0 +4.2238907921e+01 -3.6913037519e+02 +1.1978149314e+03 1.2541140176e+03 0.0000000000e+00 0.0000e+00 -1.0000e+00
<mgrwt>
<rscale>  0 0.74723084E+03</rscale>
<asrwt>0</asrwt>
<pdfrwt beam="1">  1        2 0.34128950E+00 0.74723084E+03</pdfrwt>
<pdfrwt beam="2">  1       -2 0.96805480E-02 0.74723084E+03</pdfrwt>
<totfact> 0.41323311E+02</totfact>
</mgrwt>
<rwgt>
<wgt id='morphing_basis_vector_1'> +3.3663672e-04 </wgt>
<wgt id='morphing_basis_vector_2'> +2.1934365e-04 </wgt>
<wgt id='morphing_basis_vector_3'> +2.9156191e-04 </wgt>
<wgt id='morphing_basis_vector_4'> +1.4268198e-04 </wgt>
<wgt id='morphing_basis_vector_5'> +2.3626981e-04 </wgt>
</rwgt>
</event>
<event>
 4      1 +5.9529000e-06 6.41945300e+02 7.81860800e-03 9.12851200e-02
        2 -1    0    0  501    0 +0.0000000000e+00 +0.0000000000e+00 +1.8323578513e+03 1.8323578513e+03 0.0000000000e+00 0.0000e+00 1.0000e+00
       -2 -1    0    0    0  501 -0.0000000000e+00 -0.0000000000e+00 -5.6224526296e+01 5.6224526296e+01 0.0000000000e+00 0.0000e+00 -1.0000e+00
      -13  1    1    2    0    0 -2.9912475795e+02 -1.1636603748e+02 +8.8040810753e+02 9.3708863578e+02 0.0000000000e+00 0.0000e+00 -1.0000e+00
       13  1    1    2    0    0 +2.9912475795e+02 +1.1636603748e+02 +8.9572521749e+02 9.5149374183e+02 0.0000000000e+00 0.0000e+00 1.0000e+00
<mgrwt>
<rscale>  0 0.64194533E+03</rscale>
<asrwt>0</asrwt>
<pdfrwt beam="1">  1        2 0.28190116E+00 0.64194533E+03</pdfrwt>
<pdfrwt beam="2">  1       -2 0.86499285E-02 0.64194533E+03</pdfrwt>
<totfact> 0.81164821E+02</totfact>
</mgrwt>
<rwgt>
<wgt id='morphing_basis_vector_1'> +2.0241854e-04 </wgt>
<wgt id='morphing_basis_vector_2'> +1.3303634e-04 </wgt>
<wgt id='morphing_basis_vector_3'> +1.6164641e-04 </wgt>
<wgt id='morphing_basis_vector_4'> +6.8785793e-05 </wgt>
<wgt id='morphing_basis_vector_5'> +1.1415673e-04 </wgt>
</rwgt>
</event>
<event>
 4      1 +5.9529000e-06 6.35697400e+02 7.81860800e-03 9.13882900e-02
        2 -1    0    0  501    0 +0.0000000000e+00 +0.0000000000e+00 +1.9503821760e+03 1.9503821760e+03 0.0000000000e+00 0.0000e+00 -1.0000e+00
       -2 -1    0    0    0  501 -0.0000000000e+00 -0.0000000000e+00 -5.1798975124e+01 5.1798975124e+01 0.0000000000e+00 0.0000e+00 1.0000e+00
      -13  1    1    2    0    0 -1.0773560776e+02 -2.9140362063e+02 +7.3789934473e+02 8.0063629337e+02 0.0000000000e+00 0.0000e+00 1.0000e+00
       13  1    1    2    0    0 +1.0773560776e+02 +2.9140362063e+02 +1.1606838561e+03 1.2015448577e+03 0.0000000000e+00 0.0000e+00 -1.0000e+00
<mgrwt>
<rscale>  0 0.63569741E+03</rscale>
<asrwt>0</asrwt>
<pdfrwt beam="1">  1        2 0.30005874E+00 0.63569741E+03</pdfrwt>
<pdfrwt beam="2">  1       -2 0.79690746E-02 0.63569741E+03</pdfrwt>
<totfact> 0.79481350E+02</totfact>
</mgrwt>
<rwgt>
<wgt id='morphing_basis_vector_1'> +1.9253154e-04 </wgt>
<wgt id='morphing_basis_vector_2'> +1.1801733e-04 </wgt>
<wgt id='morphing_basis_vector_3'> +1.5511777e-04 </wgt>
<wgt id='morphing_basis_vector_4'> +6.8675998e-05 </wgt>
<wgt id='morphing_basis_vector_5'> +1.0878535e-04 </wgt>
</rwgt>
</event>
<event>
 4      1 +5.9529000e-06 6.35856700e+02 7.81860800e-03 9.13856400e-02
        2 -1    0    0  501    0 +0.0000000000e+00 +0.0000000000e+00 +3.3128196437e+02 3.3128196437e+02 0.0000000000e+00 0.0000e+00 -1.0000e+00
       -2 -1    0    0    0  501 -0.0000000000e+00 -0.0000000000e+00 -3.0511302373e+02 3.0511302373e+02 0.0000000000e+00 0.0000e+00 1.0000e+00
      -13  1    1    2    0    0 -1.0045342944e+02 -2.6632785414e+02 -1.2865824170e+02 3.1236894938e+02 0.0000000000e+00 0.0000e+00 1.0000e+00
       13  1    1    2    0    0 +1.0045342944e+02 +2.6632785414e+02 +1.5482718233e+02 3.2402603872e+02 0.0000000000e+00 0.0000e+00 -1.0000e+00
<mgrwt>
<rscale>  0 0.63585672E+03</rscale>
<asrwt>0</asrwt>
<pdfrwt beam="1">  1        2 0.50966456E-01 0.63585672E+03</pdfrwt>
<pdfrwt beam="2">  1       -2 0.46940465E-01 0.63585672E+03</pdfrwt>
<totfact> 0.51528930E+02</totfact>
</mgrwt>
<rwgt>
<wgt id='morphing_basis_vector_1'> +1.9081261e-04 </wgt>
<wgt id='morphing_basis_vector_2'> +1.1230526e-04 </wgt>
<wgt id='morphing_basis_vector_3'> +1.5498842e-04 </wgt>
<wgt id='morphing_basis_vector_4'> +7.0412721e-05 </wgt>
<wgt id='morphing_basis_vector_5'> +1.0893435e-04 </wgt>
</rwgt>
</event>
<event>
 4      1 +5.9529000e-06 6.47626100e+02 7.81860800e-03 9.11923800e-02
        2 -1    0    0  501    0 +0.0000000000e+00 +0.0000000000e+00 +5.4181665656e+02 5.4181665656e+02 0.0000000000e+00 0.0000e+00 -1.0000e+00
       -2 -1    0    0    0  501 -0.0000000000e+00 -0.0000000000e+00 -1.9352466018e+02 1.9352466018e+02 0.0000000000e+00 0.0000e+00 1.0000e+00
      -13  1    1    2    0    0 +1.8308316605e+02 -7.2379267222e+01 -1.1776769258e+02 2.2940669874e+02 0.0000000000e+00 0.0000e+00 1.0000e+00
       13  1    1    2    0    0 -1.8308316605e+02 +7.2379267222e+01 +4.6605968896e+02 5.0593461799e+02 0.0000000000e+00 0.0000e+00 -1.0000e+00
<mgrwt>
<rscale>  0 0.64762608E+03</rscale>
<asrwt>0</asrwt>
<pdfrwt beam="1">  1        2 0.83356408E-01 0.64762608E+03</pdfrwt>
<pdfrwt beam="2">  1       -2 0.29773025E-01 0.64762608E+03</pdfrwt>
<totfact> 0.68072695E+02</totfact>
</mgrwt>
<rwgt>
<wgt id='morphing_basis_vector_1'> +2.0182859e-04 </wgt>
<wgt id='morphing_basis_vector_2'> +1.1670967e-04 </wgt>
<wgt id='morphing_basis_vector_3'> +1.6603590e-04 </wgt>
<wgt id='morphing_basis_vector_4'> +7.7765181e-05 </wgt>
<wgt id='morphing_basis_vector_5'> +1.1929645e-04 </wgt>
</rwgt>
</event>
<event>
 4      1 +5.9529000e-06 6.85778500e+02 7.81860800e-03 9.05942900e-02
        2 -1    0    0  501    0 +0.0000000000e+00 +0.0000000000e+00 +3.2155991804e+02 3.2155991804e+02 0.0000000000e+00 0.0000e+00 -1.0000e+00
       -2 -1    0    0    0  501 -0.0000000000e+00 -0.0000000000e+00 -3.6563332566e+02 3.6563332566e+02 0.0000000000e+00 0.0000e+00 1.0000e+00
      -13  1    1    2    0    0 +1.4833839059e+02 +2.4161523652e+01 -3.3086883441e+02 3.6340369141e+02 0.0000000000e+00 0.0000e+00 1.0000e+00
       13  1    1    2    0    0 -1.4833839059e+02 -2.4161523652e+01 +2.8679542679e+02 3.2378955229e+02 0.0000000000e+00 0.0000e+00 -1.0000e+00
<mgrwt>
<rscale>  0 0.68577845E+03</rscale>
<asrwt>0</asrwt>
<pdfrwt beam="1">  1        2 0.49470756E-01 0.68577845E+03</pdfrwt>
<pdfrwt beam="2">  1       -2 0.56251281E-01 0.68577845E+03</pdfrwt>
<totfact> 0.37273822E+02</totfact>
</mgrwt>
<rwgt>
<wgt id='morphing_basis_vector_1'> +2.4471293e-04 </wgt>
<wgt id='morphing_basis_vector_2'> +1.4296262e-04 </wgt>
<wgt id='morphing_basis_vector_3'> +2.0666569e-04 </wgt>
<wgt id='morphing_basis_vector_4'> +1.0197813e-04 </wgt>
<wgt id='morphing_basis_vector_5'> +1.5762947e-04 </wgt>
</rwgt>
</event>
<event>
 4      1 +5.9529000e-06 6.79941000e+02 7.81860800e-03 9.06831300e-02
        2 -1    0    0  501    0 +0.0000000000e+00 +0.0000000000e+00 +2.3992931922e+02 2.3992931922e+02 0.0000000000e+00 0.0000e+00 1.0000e+00
       -2 -1    0    0    0  501 -0.0000000000e+00 -0.0000000000e+00 -4.8172501115e+02 4.8172501115e+02 0.0000000000e+00 0.0000e+00 -1.0000e+00
      -13  1    1    2    0    0 -3.3447531318e+02 +5.8950730271e+01 -1.0476569083e+02 3.5542196570e+02 0.0000000000e+00 0.0000e+00 1.0000e+00
       13  1    1    2    0    0 +3.3447531318e+02 -5.8950730271e+01 -1.3703000110e+02 3.6623236467e+02 0.0000000000e+00 0.0000e+00 -1.0000e+00
<mgrwt>
<rscale>  0 0.67994104E+03</rscale>
<asrwt>0</asrwt>
<pdfrwt beam="1">  1        2 0.36912204E-01 0.67994104E+03</pdfrwt>
<pdfrwt beam="2">  1       -2 0.74111539E-01 0.67994104E+03</pdfrwt>
<totfact> 0.29182917E+02</totfact>
</mgrwt>
<rwgt>
<wgt id='morphing_basis_vector_1'> +2.4733650e-04 </wgt>
<wgt id='morphing_basis_vector_2'> +1.6834716e-04 </wgt>
<wgt id='morphing_basis_vector_3'> +2.0278344e-04 </wgt>
<wgt id='morphing_basis_vector_4'> +8.8331806e-05 </wgt>
<wgt id='morphing_basis_vector_5'> +1.5106572e-04 </wgt>
</rwgt>
</event>
<event>
 4      1 +5.9529000e-06 6.33011600e+02 7.81860800e-03 9.14330200e-02
        2 -1    0    0  501    0 +0.0000000000e+00 +0.0000000000e+00 +1.1319351495e+03 1.1319351495e+03 0.0000000000e+00 0.0000e+00 -1.0000e+00
       -2 -1    0    0    0  501 -0.0000000000e+00 -0.0000000000e+00 -8.8499713741e+01 8.8499713741e+01 0.0000000000e+00 0.0000e+00 1.0000e+00
      -13  1    1    2    0    0 -1.6578099419e+02 -1.3160603467e+02 +6.8037571219e+01 2.2233442714e+02 0.0000000000e+00 0.0000e+00 1.0000e+00
       13  1    1    2    0    0 +1.6578099419e+02 +1.3160603467e+02 +9.7539786456e+02 9.9810043612e+02 0.0000000000e+00 0.0000e+00 -1.0000e+00
<mgrwt>
<rscale>  0 0.63301165E+03</rscale>
<asrwt>0</asrwt>
<pdfrwt beam="1">  1        2 0.17414386E+00 0.63301165E+03</pdfrwt>
<pdfrwt beam="2">  1       -2 0.13615341E-01 0.63301165E+03</pdfrwt>
<totfact> 0.97195957E+02</totfact>
</mgrwt>
<rwgt>
<wgt id='morphing_basis_vector_1'> +1.8711907e-04 </wgt>
<wgt id='morphing_basis_vector_2'> +1.0783880e-04 </wgt>
<wgt id='morphing_basis_vector_3'> +1.5224243e-04 </wgt>
<wgt id='morphing_basis_vector_4'> +6.9681490e-05 </wgt>
<wgt id='morphing_basis_vector_5'> +1.0653562e-04 </wgt>
</rwgt>
</event>
<event>
 4      1 +5.9529000e-06 6.73320100e+02 7.81860800e-03 9.07850300e-02
        2 -1    0    0  501    0 +0.0000000000e+00 +0.0000000000e+00 +5.3353164972e+02 5.3353164972e+02 0.0000000000e+00 0.0000e+00 -1.0000e+00
       -2 -1    0    0    0  501 -0.0000000000e+00 -0.0000000000e+00 -2.1243346563e+02 2.1243346563e+02 0.0000000000e+00 0.0000e+00 1.0000e+00
      -13  1    1    2    0    0 +1.2249815123e+02 -6.0717308489e+01 -1.8029183601e+02 2.2626872240e+02 0.0000000000e+00 0.0000e+00 1.0000e+00
       13  1    1    2    0    0 -1.2249815123e+02 +6.0717308489e+01 +5.0139002009e+02 5.1969639295e+02 0.0000000000e+00 0.0000e+00 -1.0000e+00
<mgrwt>
<rscale>  0 0.67332006E+03</rscale>
<asrwt>0</asrwt>
<pdfrwt beam="1">  1        2 0.82081792E-01 0.67332006E+03</pdfrwt>
<pdfrwt beam="2">  1       -2 0.32682072E-01 0.67332006E+03</pdfrwt>
<totfact> 0.58705156E+02</totfact>
</mgrwt>
<rwgt>
<wgt id='morphing_basis_vector_1'> +2.2994581e-04 </wgt>
<wgt id='morphing_basis_vector_2'> +1.3380725e-04 </wgt>
<wgt id='morphing_basis_vector_3'> +1.9262570e-04 </wgt>
<wgt id='morphing_basis_vector_4'> +9.3579262e-05 </wgt>
<wgt id='morphing_basis_vector_5'> +1.4427944e-04 </wgt>
</rwgt>
</event>
<event>
 4      1 +5.9529000e-06 7.49501300e+02 7.81860800e-03 8.96807300e-02
        2 -1    0    0  501    0 +0.0000000000e+00 +0.0000000000e+00 +3.4293971451e+02 3.4293971451e+02 0.0000000000e+00 0.0000e+00 -1.0000e+00
       -2 -1    0    0    0  501 -0.0000000000e+00 -0.0000000000e+00 -4.0951234423e+02 4.0951234423e+02 0.0000000000e+00 0.0000e+00 1.0000e+00
      -13  1    1    2    0    0 -6.2940293722e+01 +2.8811031651e+02 -2.6543034856e+02 3.9676479808e+02 0.0000000000e+00 0.0000e+00 1.0000e+00
       13  1    1    2    0    0 +6.2940293722e+01 -2.8811031651e+02 +1.9885771884e+02 3.5568726066e+02 0.0000000000e+00 0.0000e+00 -1.0000e+00
<mgrwt>
<rscale>  0 0.74950129E+03</rscale>
<asrwt>0</asrwt>
<pdfrwt beam="1">  1        2 0.52759956E-01 0.74950129E+03</pdfrwt>
<pdfrwt beam="2">  1       -2 0.63001899E-01 0.74950129E+03</pdfrwt>
<totfact> 0.27447034E+02</totfact>
</mgrwt>
<rwgt>
<wgt id='morphing_basis_vector_1'> +3.3305896e-04 </wgt>
<wgt id='morphing_basis_vector_2'> +1.9980185e-04 </wgt>
<wgt id='morphing_basis_vector_3'> +2.9161897e-04 </wgt>
<wgt id='morphing_basis_vector_4'> +1.5299260e-04 </wgt>
<wgt id='morphing_basis_vector_5'> +2.3992310e-04 </wgt>
</rwgt>
</event>
<event>
 4      1 +5.9529000e-06 6.33516500e+02 7.81860800e-03 9.14245900e-02
        2 -1    0    0  501    0 +0.0000000000e+00 +0.0000000000e+00 +8.9265631202e+02 8.9265631202e+02 0.0000000000e+00 0.0000e+00 -1.0000e+00
       -2 -1    0    0    0  501 -0.0000000000e+00 -0.0000000000e+00 -1.1240136548e+02 1.1240136548e+02 0.0000000000e+00 0.0000e+00 1.0000e+00
      -13  1    1    2    0    0 -1.5171488084e+02 -9.5079263437e+01 -2.4420178848e+01 1.8070367052e+02 0.0000000000e+00 0.0000e+00 1.0000e+00
       13  1    1    2    0    0 +1.5171488084e+02 +9.5079263437e+01 +8.0467512539e+02 8.2435400698e+02 0.0000000000e+00 0.0000e+00 -1.0000e+00
<mgrwt>
<rscale>  0 0.63351650E+03</rscale>
<asrwt>0</asrwt>
<pdfrwt beam="1">  1        2 0.13733174E+00 0.63351650E+03</pdfrwt>
<pdfrwt beam="2">  1       -2 0.17292518E-01 0.63351650E+03</pdfrwt>
<totfact> 0.92585156E+02</totfact>
</mgrwt>
<rwgt>
<wgt id='morphing_basis_vector_1'> +1.8752643e-04 </wgt>
<wgt id='morphing_basis_vector_2'> +1.0786959e-04 </wgt>
<wgt id='morphing_basis_vector_3'> +1.5269146e-04 </wgt>
<wgt id='morphing_basis_vector_4'> +7.0025186e-05 </wgt>
<wgt id='morphing_basis_vector_5'> +1.0696022e-04 </wgt>
</rwgt>
</event>
<event>
 4      1 +5.9529000e-06 6.32248900e+02 7.81860800e-03 9.14457600e-02
        2 -1    0    0  501    0 +0.0000000000e+00 +0.0000000000e+00 +3.4551329511e+02 3.4551329511e+02 0.0000000000e+00 0.0000e+00 -1.0000e+00
       -2 -1    0    0    0  501 -0.0000000000e+00 -0.0000000000e+00 -2.8923538931e+02 2.8923538931e+02 0.0000000000e+00 0.0000e+00 1.0000e+00
      -13  1    1    2    0    0 +3.0501232899e+02 -5.3108256795e+01 -3.6001552409e+01 3.1168753512e+02 0.0000000000e+00 0.0000e+00 1.0000e+00
       13  1    1    2    0    0 -3.0501232899e+02 +5.3108256795e+01 +9.2279458204e+01 3.2306114929e+02 0.0000000000e+00 0.0000e+00 -1.0000e+00
<mgrwt>
<rscale>  0 0.63224891E+03</rscale>
<asrwt>0</asrwt>
<pdfrwt beam="1">  1        2 0.53155891E-01 0.63224891E+03</pdfrwt>
<pdfrwt beam="2">  1       -2 0.44497753E-01 0.63224891E+03</pdfrwt>
<totfact> 0.54447454E+02</totfact>
</mgrwt>
<rwgt>
<wgt id='morphing_basis_vector_1'> +1.8919120e-04 </wgt>
<wgt id='morphing_basis_vector_2'> +1.1610682e-04 </wgt>
<wgt id='morphing_basis_vector_3'> +1.5193028e-04 </wgt>
<wgt id='morphing_basis_vector_4'> +6.6827829e-05 </wgt>
<wgt id='morphing_basis_vector_5'> +1.0588036e-04 </wgt>
</rwgt>
</event>
<event>
 4      1 +5.9529000e-06 7.20546700e+02 7.81860800e-03 9.00835400e-02
        2 -1    0    0  501    0 +0.0000000000e+00 +0.0000000000e+00 +5.2759568620e+02 5.2759568620e+02 0.0000000000e+00 0.0000e+00 1.0000e+00
       -2 -1    0    0    0  501 -0.0000000000e+00 -0.0000000000e+00 -2.4601580701e+02 2.4601580701e+02 0.0000000000e+00 0.0000e+00 -1.0000e+00
      -13  1    1    2    0    0 +5.6781503830e+01 +1.7672787359e+02 -1.9072138047e+02 2.6614192727e+02 0.0000000000e+00 0.0000e+00 -1.0000e+00
       13  1    1    2    0    0 -5.6781503830e+01 -1.7672787359e+02 +4.7230125966e+02 5.0746956594e+02 0.0000000000e+00 0.0000e+00 1.0000e+00
<mgrwt>
<rscale>  0 0.72054668E+03</rscale>
<asrwt>0</asrwt>
<pdfrwt beam="1">  1        2 0.81168567E-01 0.72054668E+03</pdfrwt>
<pdfrwt beam="2">  1       -2 0.37848586E-01 0.72054668E+03</pdfrwt>
<totfact> 0.45519714E+02</totfact>
</mgrwt>
<rwgt>
<wgt id='morphing_basis_vector_1'> +2.8994761e-04 </wgt>
<wgt id='morphing_basis_vector_2'> +1.7120115e-04 </wgt>
<wgt id='morphing_basis_vector_3'> +2.5007455e-04 </wgt>
<wgt id='morphing_basis_vector_4'> +1.2829238e-04 </wgt>
<wgt id='morphing_basis_vector_5'> +1.9949479e-04 </wgt>
</rwgt>
</event>
<event>
 4      1 +5.9529000e-06 7.22798500e+02 7.81860800e-03 9.00515000e-02
        2 -1    0    0  501    0 +0.0000000000e+00 +0.0000000000e+00 +6.9394243251e+02 6.9394243251e+02 0.0000000000e+00 0.0000e+00 -1.0000e+00
       -2 -1    0    0    0  501 -0.0000000000e+00 -0.0000000000e+00 -1.8821360435e+02 1.8821360435e+02 0.0000000000e+00 0.0000e+00 1.0000e+00
      -13  1    1    2    0    0 -2.2372847969e+02 -7.9201539726e+01 -7.9772347545e+01 2.5038159667e+02 0.0000000000e+00 0.0000e+00 1.0000e+00
       13  1    1    2    0    0 +2.2372847969e+02 +7.9201539726e+01 +5.8550117570e+02 6.3177444018e+02 0.0000000000e+00 0.0000e+00 -1.0000e+00
<mgrwt>
<rscale>  0 0.72279847E+03</rscale>
<asrwt>0</asrwt>
<pdfrwt beam="1">  1        2 0.10676037E+00 0.72279847E+03</pdfrwt>
<pdfrwt beam="2">  1       -2 0.28955940E-01 0.72279847E+03</pdfrwt>
<totfact> 0.53246164E+02</totfact>
</mgrwt>
<rwgt>
<wgt id='morphing_basis_vector_1'> +2.9324268e-04 </wgt>
<wgt id='morphing_basis_vector_2'> +1.7364033e-04 </wgt>
<wgt id='morphing_basis_vector_3'> +2.5317339e-04 </wgt>
<wgt id='morphing_basis_vector_4'> +1.2998218e-04 </wgt>
<wgt id='morphing_basis_vector_5'> +2.0244697e-04 </wgt>
</rwgt>
</event>
<event>
 4      1 +5.9529000e-06 7.14499200e+02 7.81860800e-03 9.01702000e-02
        2 -1    0    0  501    0 +0.0000000000e+00 +0.0000000000e+00 +1.7888585839e+02 1.7888585839e+02 0.0000000000e+00 0.0000e+00 1.0000e+00
       -2 -1    0    0    0  501 -0.0000000000e+00 -0.0000000000e+00 -7.1345644697e+02 7.1345644697e+02 0.0000000000e+00 0.0000e+00 -1.0000e+00
      -13  1    1    2    0    0 +3.6380868973e+01 -1.5838910290e+02 -6.6461918289e+02 6.8419977624e+02 0.0000000000e+00 0.0000e+00 -1.0000e+00
       13  1    1    2    0    0 -3.6380868973e+01 +1.5838910290e+02 +1.3004859431e+02 2.0814252911e+02 0.0000000000e+00 0.0000e+00 1.0000e+00
<mgrwt>
<rscale>  0 0.71449918E+03</rscale>
<asrwt>0</asrwt>
<pdfrwt beam="1">  1        2 0.27520901E-01 0.71449918E+03</pdfrwt>
<pdfrwt beam="2">  1       -2 0.10976253E+00 0.71449918E+03</pdfrwt>
<totfact> 0.16318808E+02</totfact>
</mgrwt>
<rwgt>
<wgt id='morphing_basis_vector_1'> +2.8161666e-04 </wgt>
<wgt id='morphing_basis_vector_2'> +1.6592841e-04 </wgt>
<wgt id='morphing_basis_vector_3'> +2.4205081e-04 </wgt>
<wgt id='morphing_basis_vector_4'> +1.2342162e-04 </wgt>
<wgt id='morphing_basis_vector_5'> +1.9170543e-04 </wgt>
</rwgt>
</event>
<event>
 4      1 +5.9529000e-06 6.43582900e+02 7.81860800e-03 9.12582800e-02
        2 -1    0    0  501    0 +0.0000000000e+00 +0.0000000000e+00 +1.0678786487e+03 1.0678786487e+03 0.0000000000e+00 0.0000e+00 -1.0000e+00
       -2 -1    0    0    0  501 -0.0000000000e+00 -0.0000000000e+00 -9.6967694326e+01 9.6967694326e+01 0.0000000000e+00 0.0000e+00 1.0000e+00
      -13  1    1    2    0    0 +3.0944451871e+02 -8.6892775944e+01 +5.1369667141e+02 6.0596248638e+02 0.0000000000e+00 0.0000e+00 -1.0000e+00
       13  1    1    2    0    0 -3.0944451871e+02 +8.6892775944e+01 +4.5721428291e+02 5.5888385660e+02 0.0000000000e+00 0.0000e+00 1.0000e+00
<mgrwt>
<rscale>  0 0.64358288E+03</rscale>
<asrwt>0</asrwt>
<pdfrwt beam="1">  1        2 0.16428901E+00 0.64358288E+03</pdfrwt>
<pdfrwt beam="2">  1       -2 0.14918108E-01 0.64358288E+03</pdfrwt>
<totfact> 0.91541014E+02</totfact>
</mgrwt>
<rwgt>
<wgt id='morphing_basis_vector_1'> +2.0563428e-04 </wgt>
<wgt id='morphing_basis_vector_2'> +1.3883680e-04 </wgt>
<wgt id='morphing_basis_vector_3'> +1.6351481e-04 </wgt>
<wgt id='morphing_basis_vector_4'> +6.8273382e-05 </wgt>
<wgt id='morphing_basis_vector_5'> +1.1558692e-04 </wgt>
</rwgt>
</event>
<event>
 4      1 +5.9529000e-06 6.56008700e+02 7.81860800e-03 9.10573400e-02
        2 -1    0    0  501    0 +0.0000000000e+00 +0.0000000000e+00 +1.8925508674e+03 1.8925508674e+03 0.0000000000e+00 0.0000e+00 -1.0000e+00
       -2 -1    0    0    0  501 -0.0000000000e+00 -0.0000000000e+00 -5.6847541800e+01 5.6847541800e+01 0.0000000000e+00 0.0000e+00 1.0000e+00
      -13  1    1    2    0    0 -3.2051908746e+02 +3.9761008287e+01 +7.4783430312e+02 8.1459779531e+02 0.0000000000e+00 0.0000e+00 1.0000e+00
       13  1    1    2    0    0 +3.2051908746e+02 -3.9761008287e+01 +1.0878690224e+03 1.1348006138e+03 0.0000000000e+00 0.0000e+00 -1.0000e+00
<mgrwt>
<rscale>  0 0.65600873E+03</rscale>
<asrwt>0</asrwt>
<pdfrwt beam="1">  1        2 0.29116162E+00 0.65600873E+03</pdfrwt>
<pdfrwt beam="2">  1       -2 0.87457771E-02 0.65600873E+03</pdfrwt>
<totfact> 0.73899805E+02</totfact>
</mgrwt>
<rwgt>
<wgt id='morphing_basis_vector_1'> +2.1437306e-04 </wgt>
<wgt id='morphing_basis_vector_2'> +1.3349231e-04 </wgt>
<wgt id='morphing_basis_vector_3'> +1.7516994e-04 </wgt>
<wgt id='morphing_basis_vector_4'> +7.9230733e-05 </wgt>
<wgt id='morphing_basis_vector_5'> +1.2703045e-04 </wgt>
</rwgt>
</event>
<event>
 4      1 +5.9529000e-06 6.89697100e+02 7.81860800e-03 9.05351700e-02
        2 -1    0    0  501    0 +0.0000000000e+00 +0.0000000000e+00 +1.7487784937e+03 1.7487784937e+03 0.0000000000e+00 0.0000e+00 1.0000e+00
       -2 -1    0    0    0  501 -0.0000000000e+00 -0.0000000000e+00 -6.8002044427e+01 6.8002044427e+01 0.0000000000e+00 0.0000e+00 -1.0000e+00
      -13  1    1    2    0    0 -2.9570058273e+02 +2.6776241733e+01 +3.7835787206e+02 4.8094748268e+02 0.0000000000e+00 0.0000e+00 -1.0000e+00
       13  1    1    2    0    0 +2.9570058273e+02 -2.6776241733e+01 +1.3024185772e+03 1.3358330554e+03 0.0000000000e+00 0.0000e+00 1.0000e+00
<mgrwt>
<rscale>  0 0.68969707E+03</rscale>
<asrwt>0</asrwt>
<pdfrwt beam="1">  1        2 0.26904281E+00 0.68969707E+03</pdfrwt>
<pdfrwt beam="2">  1       -2 0.10461854E-01 0.68969707E+03</pdfrwt>
<totfact> 0.66735086E+02</totfact>
</mgrwt>
<rwgt>
<wgt id='morphing_basis_vector_1'> +2.5048366e-04 </wgt>
<wgt id='morphing_basis_vector_2'> +1.4894588e-04 </wgt>
<wgt id='morphing_basis_vector_3'> +2.1155228e-04 </wgt>
<wgt id='morphing_basis_vector_4'> +1.0373040e-04 </wgt>
<wgt id='morphing_basis_vector_5'> +1.6197948e-04 </wgt>
</rwgt>
</event>
<event>
 4      1 +5.9529000e-06 7.07053300e+02 7.81860800e-03 9.02781300e-02
        2 -1    0    0  501    0 +0.0000000000e+00 +0.0000000000e+00 +1.4885962699e+02 1.4885962699e+02 0.0000000000e+00 0.0000e+00 -1.0000e+00
       -2 -1    0    0    0  501 -0.0000000000e+00 -0.0000000000e+00 -8.3959018942e+02 8.3959018942e+02 0.0000000000e+00 0.0000e+00 1.0000e+00
      -13  1    1    2    0    0 +1.8377043887e+02 +2.8716603603e+01 -7.6565652796e+02 7.8792520986e+02 0.0000000000e+00 0.0000e+00 1.0000e+00
       13  1    1    2    0    0 -1.8377043887e+02 -2.8716603603e+01 +7.4925965527e+01 2.0052460655e+02 0.0000000000e+00 0.0000e+00 -1.0000e+00
<mgrwt>
<rscale>  0 0.70705327E+03</rscale>
<asrwt>0</asrwt>
<pdfrwt beam="1">  1        2 0.22901481E-01 0.70705327E+03</pdfrwt>
<pdfrwt beam="2">  1       -2 0.12916772E+00 0.70705327E+03</pdfrwt>
<totfact> 0.13311222E+02</totfact>
</mgrwt>
<rwgt>
<wgt id='morphing_basis_vector_1'> +2.7168723e-04 </wgt>
<wgt id='morphing_basis_vector_2'> +1.5981890e-04 </wgt>
<wgt id='morphing_basis_vector_3'> +2.3247199e-04 </wgt>
<wgt id='morphing_basis_vector_4'> +1.1753862e-04 </wgt>
<wgt id='morphing_basis_vector_5'> +1.8241292e-04 </wgt>
</rwgt>
</event>
<event>
 4      1 +5.9529000e-06 7.19540400e+02 7.81860800e-03 9.00979000e-02
        2 -1    0    0  501    0 +0.0000000000e+00 +0.0000000000e+00 +8.5461304160e+02 8.5461304160e+02 0.0000000000e+00 0.0000e+00 -1.0000e+00
       -2 -1    0    0    0  501 -0.0000000000e+00 -0.0000000000e+00 -1.5145405205e+02 1.5145405205e+02 0.0000000000e+00 0.0000e+00 1.0000e+00
      -13  1    1    2    0    0 +9.6700497308e+01 -3.4614823817e+02 +3.2881749859e+02 4.8712476466e+02 0.0000000000e+00 0.0000e+00 1.0000e+00
       13  1    1    2    0    0 -9.6700497308e+01 +3.4614823817e+02 +3.7434149096e+02 5.1894232899e+02 0.0000000000e+00 0.0000e+00 -1.0000e+00
<mgrwt>
<rscale>  0 0.71954043E+03</rscale>
<asrwt>0</asrwt>
<pdfrwt beam="1">  1        2 0.13147893E+00 0.71954043E+03</pdfrwt>
<pdfrwt beam="2">  1       -2 0.23300624E-01 0.71954043E+03</pdfrwt>
<totfact> 0.59529794E+02</totfact>
</mgrwt>
<rwgt>
<wgt id='morphing_basis_vector_1'> +2.9700401e-04 </wgt>
<wgt id='morphing_basis_vector_2'> +1.9634613e-04 </wgt>
<wgt id='morphing_basis_vector_3'> +2.5213070e-04 </wgt>
<wgt id='morphing_basis_vector_4'> +1.1819279e-04 </wgt>
<wgt id='morphing_basis_vector_5'> +1.9790508e-04 </wgt>
</rwgt>
</event>
<event>
 4      1 +5.9529000e-06 6.37627400e+02 7.81860800e-03 9.13562800e-02
        2 -1    0    0  501    0 +0.0000000000e+00 +0.0000000000e+00 +3.1396263770e+02 3.1396263770e+02 0.0000000000e+00 0.0000e+00 1.0000e+00
       -2 -1    0    0    0  501 -0.0000000000e+00 -0.0000000000e+00 -3.2373975645e+02 3.2373975645e+02 0.0000000000e+00 0.0000e+00 -1.0000e+00
      -13  1    1    2    0    0 -3.7772802459e+01 +1.3328416054e+02 +2.8228755653e+02 3.1444827337e+02 0.0000000000e+00 0.0000e+00 1.0000e+00
       13  1    1    2    0    0 +3.7772802459e+01 -1.3328416054e+02 -2.9206467528e+02 3.2325412078e+02 0.0000000000e+00 0.0000e+00 -1.0000e+00
<mgrwt>
<rscale>  0 0.63762744E+03</rscale>
<asrwt>0</asrwt>
<pdfrwt beam="1">  1        2 0.48301944E-01 0.63762744E+03</pdfrwt>
<pdfrwt beam="2">  1       -2 0.49806117E-01 0.63762744E+03</pdfrwt>
<totfact> 0.48791536E+02</totfact>
</mgrwt>
<rwgt>
<wgt id='morphing_basis_vector_1'> +2.5907774e-04 </wgt>
<wgt id='morphing_basis_vector_2'> +3.1917895e-04 </wgt>
<wgt id='morphing_basis_vector_3'> +1.6689601e-04 </wgt>
<wgt id='morphing_basis_vector_4'> +1.2463327e-05 </wgt>
<wgt id='morphing_basis_vector_5'> +1.0993368e-04 </wgt>
</rwgt>
</event>
<event>
 4      1 +5.9529000e-06 6.34331300e+02 7.81860800e-03 9.14110100e-02
        2 -1    0    0  501    0 +0.0000000000e+00 +0.0000000000e+00 +2.6778288125e+02 2.6778288125e+02 0.0000000000e+00 0.0000e+00 -1.0000e+00
       -2 -1    0    0    0  501 -0.0000000000e+00 -0.0000000000e+00 -3.7565526857e+02 3.7565526857e+02 0.0000000000e+00 0.0000e+00 1.0000e+00
      -13  1    1    2    0    0 -1.9021309317e+01 -1.8529604853e+02 -3.1432691837e+02 3.6537357242e+02 0.0000000000e+00 0.0000e+00 1.0000e+00
       13  1    1    2    0    0 +1.9021309317e+01 +1.8529604853e+02 +2.0645453106e+02 2.7806457740e+02 0.0000000000e+00 0.0000e+00 -1.0000e+00
<mgrwt>
<rscale>  0 0.63433130E+03</rscale>
<asrwt>0</asrwt>
<pdfrwt beam="1">  1        2 0.41197367E-01 0.63433130E+03</pdfrwt>
<pdfrwt beam="2">  1       -2 0.57793118E-01 0.63433130E+03</pdfrwt>
<totfact> 0.43427701E+02</totfact>
</mgrwt>
<rwgt>
<wgt id='morphing_basis_vector_1'> +1.8834144e-04 </wgt>
<wgt id='morphing_basis_vector_2'> +1.0840155e-04 </wgt>
<wgt id='morphing_basis_vector_3'> +1.5344005e-04 </wgt>
<wgt id='morphing_basis_vector_4'> +7.0445926e-05 </wgt>
<wgt id='morphing_basis_vector_5'> +1.0764702e-04 </wgt>
</rwgt>
</event>
<event>
 4      1 +5.9529000e-06 6.48896100e+02 7.81860800e-03 9.11717800e-02
        2 -1    0    0  501    0 +0.0000000000e+00 +0.0000000000e+00 +4.1044304508e+02 4.1044304508e+02 0.0000000000e+00 0.0000e+00 1.0000e+00
       -2 -1    0    0    0  501 -0.0000000000e+00 -0.0000000000e+00 -2.5647047316e+02 2.5647047316e+02 0.0000000000e+00 0.0000e+00 -1.0000e+00
      -13  1    1    2    0    0 -2.8173682581e+00 +3.1308638033e+02 +1.6440989833e+02 3.5364054319e+02 0.0000000000e+00 0.0000e+00 -1.0000e+00
       13  1    1    2    0    0 +2.8173682581e+00 -3.1308638033e+02 -1.0437326409e+01 3.1327297505e+02 0.0000000000e+00 0.0000e+00 1.0000e+00
<mgrwt>
<rscale>  0 0.64889605E+03</rscale>
<asrwt>0</asrwt>
<pdfrwt beam="1">  1        2 0.63145084E-01 0.64889605E+03</pdfrwt>
<pdfrwt beam="2">  1       -2 0.39456996E-01 0.64889605E+03</pdfrwt>
<totfact> 0.56168908E+02</totfact>
</mgrwt>
<rwgt>
<wgt id='morphing_basis_vector_1'> +2.2033530e-04 </wgt>
<wgt id='morphing_basis_vector_2'> +1.7065518e-04 </wgt>
<wgt id='morphing_basis_vector_3'> +1.7057756e-04 </wgt>
<wgt id='morphing_basis_vector_4'> +6.2724565e-05 </wgt>
<wgt id='morphing_basis_vector_5'> +1.2025700e-04 </wgt>
</rwgt>
</event>
<event>
 4      1 +5.9529000e-06 7.25715700e+02 7.81860800e-03 9.00101700e-02
        2 -1    0    0  501    0 +0.0000000000e+00 +0.0000000000e+00 +5.3598869313e+02 5.3598869313e+02 0.0000000000e+00 0.0000e+00 1.0000e+00
       -2 -1    0    0    0  501 -0.0000000000e+00 -0.0000000000e+00 -2.4565037114e+02 2.4565037114e+02 0.0000000000e+00 0.0000e+00 -1.0000e+00
      -13  1    1    2    0    0 +3.1350192654e+02 +1.7958923493e+02 +1.0896216981e+02 3.7737051514e+02 0.0000000000e+00 0.0000e+00 1.0000e+00
       13  1    1    2    0    0 -3.1350192654e+02 -1.7958923493e+02 +1.8137615218e+02 4.0426854914e+02 0.0000000000e+00 0.0000e+00 -1.0000e+00
<mgrwt>
<rscale>  0 0.72571571E+03</rscale>
<asrwt>0</asrwt>
<pdfrwt beam="1">  1        2 0.82459799E-01 0.72571571E+03</pdfrwt>
<pdfrwt beam="2">  1       -2 0.37792365E-01 0.72571571E+03</pdfrwt>
<totfact> 0.44814314E+02</totfact>
</mgrwt>
<rwgt>
<wgt id='morphing_basis_vector_1'> +3.0448975e-04 </wgt>
<wgt id='morphing_basis_vector_2'> +1.9817732e-04 </wgt>
<wgt id='morphing_basis_vector_3'> +2.6014149e-04 </wgt>
<wgt id='morphing_basis_vector_4'> +1.2448636e-04 </wgt>
<wgt id='morphing_basis_vector_5'> +2.0607711e-04 </wgt>
</rwgt>
</event>
<event>
 4      1 +5.9529000e-06 7.42871800e+02 7.81860800e-03 8.97712200e-02
        2 -1    0    0  501    0 +0.0000000000e+00 +0.0000000000e+00 +9.2401011628e+02 9.2401011628e+02 0.0000000000e+00 0.0000e+00 1.0000e+00
       -2 -1    0    0    0  501 -0.0000000000e+00 -0.0000000000e+00 -1.4931071326e+02 1.4931071326e+02 0.0000000000e+00 0.0000e+00 -1.0000e+00
      -13  1    1    2    0    0 +3.7341554824e+01 -3.6644296119e+02 +3.1821246387e+02 4.8675867500e+02 0.0000000000e+00 0.0000e+00 -1.0000e+00
       13  1    1    2    0    0 -3.7341554824e+01 +3.6644296119e+02 +4.5648693914e+02 5.8656215454e+02 0.0000000000e+00 0.0000e+00 1.0000e+00
<mgrwt>
<rscale>  0 0.74287175E+03</rscale>
<asrwt>0</asrwt>
<pdfrwt beam="1">  1        2 0.14215540E+00 0.74287175E+03</pdfrwt>
<pdfrwt beam="2">  1       -2 0.22970880E-01 0.74287175E+03</pdfrwt>
<totfact> 0.54888978E+02</totfact>
</mgrwt>
<rwgt>
<wgt id='morphing_basis_vector_1'> +3.2918954e-04 </wgt>
<wgt id='morphing_basis_vector_2'> +2.1268120e-04 </wgt>
<wgt id='morphing_basis_vector_3'> +2.8463872e-04 </wgt>
<wgt id='morphing_basis_vector_4'> +1.3968305e-04 </wgt>
<wgt id='morphing_basis_vector_5'> +2.2994156e-04 </wgt>
</rwgt>
</event>
<event>
 4      1 +5.9529000e-06 6.82015400e+02 7.81860800e-03 9.06514500e-02
        2 -1    0    0  501    0 +0.0000000000e+00 +0.0000000000e+00 +4.8316896435e+02 4.8316896435e+02 0.0000000000e+00 0.0000e+00 -1.0000e+00
       -2 -1    0    0    0  501 -0.0000000000e+00 -0.0000000000e+00 -2.4067410009e+02 2.4067410009e+02 0.0000000000e+00 0.0000e+00 1.0000e+00
      -13  1    1    2    0    0 -2.3842664438e+02 +3.3319991718e+01 -1.3507796224e+02 2.7604989129e+02 0.0000000000e+00 0.0000e+00 1.0000e+00
       13  1    1    2    0    0 +2.3842664438e+02 -3.3319991718e+01 +3.7757282650e+02 4.4779317314e+02 0.0000000000e+00 0.0000e+00 -1.0000e+00
<mgrwt>
<rscale>  0 0.68201541E+03</rscale>
<asrwt>0</asrwt>
<pdfrwt beam="1">  1        2 0.74333686E-01 0.68201541E+03</pdfrwt>
<pdfrwt beam="2">  1       -2 0.37026785E-01 0.68201541E+03</pdfrwt>
<totfact> 0.52465562E+02</totfact>
</mgrwt>
<rwgt>
<wgt id='morphing_basis_vector_1'> +2.4041879e-04 </wgt>
<wgt id='morphing_basis_vector_2'> +1.4089747e-04 </wgt>
<wgt id='morphing_basis_vector_3'> +2.0241594e-04 </wgt>
<wgt id='morphing_basis_vector_4'> +9.9140948e-05 </wgt>
<wgt id='morphing_basis_vector_5'> +1.5350352e-04 </wgt>
</rwgt>
</event>
<event>
 4      1 +5.9529000e-06 7.09628200e+02 7.81860800e-03 9.02406500e-02
        2 -1    0    0  501    0 +0.0000000000e+00 +0.0000000000e+00 +3.8807409495e+02 3.8807409495e+02 0.0000000000e+00 0.0000e+00 -1.0000e+00
       -2 -1    0    0    0  501 -0.0000000000e+00 -0.0000000000e+00 -3.2440466214e+02 3.2440466214e+02 0.0000000000e+00 0.0000e+00 1.0000e+00
      -13  1    1    2    0    0 +3.5057293531e+02 -1.8512373399e+01 -1.9840026158e+01 3.5162155448e+02 0.0000000000e+00 0.0000e+00 1.0000e+00
       13  1    1    2    0    0 -3.5057293531e+02 +1.8512373399e+01 +8.3509458969e+01 3.6085720261e+02 0.0000000000e+00 0.0000e+00 -1.0000e+00
<mgrwt>
<rscale>  0 0.70962820E+03</rscale>
<asrwt>0</asrwt>
<pdfrwt beam="1">  1        2 0.59703706E-01 0.70962820E+03</pdfrwt>
<pdfrwt beam="2">  1       -2 0.49908410E-01 0.70962820E+03</pdfrwt>
<totfact> 0.38207600E+02</totfact>
</mgrwt>
<rwgt>
<wgt id='morphing_basis_vector_1'> +2.8059886e-04 </wgt>
<wgt id='morphing_basis_vector_2'> +1.7888380e-04 </wgt>
<wgt id='morphing_basis_vector_3'> +2.3782052e-04 </wgt>
<wgt id='morphing_basis_vector_4'> +1.1363002e-04 </wgt>
<wgt id='morphing_basis_vector_5'> +1.8542365e-04 </wgt>
</rwgt>
</event>
<event>
 4      1 +5.9529000e-06 6.39495700e+02 7.81860800e-03 9.13254200e-02
        2 -1    0    0  501    0 +0.0000000000e+00 +0.0000000000e+00 +1.2047836068e+03 1.2047836068e+03 0.0000000000e+00 0.0000e+00 -1.0000e+00
       -2 -1    0    0    0  501 -0.0000000000e+00 -0.0000000000e+00 -8.4860611285e+01 8.4860611285e+01 0.0000000000e+00 0.0000e+00 1.0000e+00
      -13  1    1    2    0    0 +3.1296503309e+02 -6.5405818112e+01 +5.6740959210e+02 6.5129001082e+02 0.0000000000e+00 0.0000e+00 1.0000e+00
       13  1    1    2    0    0 -3.1296503309e+02 +6.5405818112e+01 +5.5251340341e+02 6.3835420726e+02 0.0000000000e+00 0.0000e+00 -1.0000e+00
<mgrwt>
<rscale>  0 0.63949566E+03</rscale>
<asrwt>0</asrwt>
<pdfrwt beam="1">  1        2 0.18535131E+00 0.63949566E+03</pdfrwt>
<pdfrwt beam="2">  1       -2 0.13055480E-01 0.63949566E+03</pdfrwt>
<totfact> 0.94292954E+02</totfact>
</mgrwt>
<rwgt>
<wgt id='morphing_basis_vector_1'> +2.0032997e-04 </wgt>
<wgt id='morphing_basis_vector_2'> +1.3272836e-04 </wgt>
<wgt id='morphing_basis_vector_3'> +1.5933856e-04 </wgt>
<wgt id='morphing_basis_vector_4'> +6.7133813e-05 </wgt>
<wgt id='morphing_basis_vector_5'> +1.1201538e-04 </wgt>
</rwgt>
</event>
<event>
 4      1 +5.9529000e-06 6.29343300e+02 7.81860800e-03 9.14944900e-02
        2 -1    0    0  501    0 +0.0000000000e+00 +0.0000000000e+00 +8.3326376133e+02 8.3326376133e+02 0.0000000000e+00 0.0000e+00 -1.0000e+00
       -2 -1    0    0    0  501 -0.0000000000e+00 -0.0000000000e+00 -1.1883180502e+02 1.1883180502e+02 0.0000000000e+00 0.0000e+00 1.0000e+00
      -13  1    1    2    0    0 -1.9630570284e+02 -2.2354538933e+02 +5.1230801218e+02 5.9242549692e+02 0.0000000000e+00 0.0000e+00 1.0000e+00
       13  1    1    2    0    0 +1.9630570284e+02 +2.2354538933e+02 +2.0212394413e+02 3.5967006943e+02 0.0000000000e+00 0.0000e+00 -1.0000e+00
<mgrwt>
<rscale>  0 0.62934327E+03</rscale>
<asrwt>0</asrwt>
<pdfrwt beam="1">  1        2 0.12819442E+00 0.62934327E+03</pdfrwt>
<pdfrwt beam="2">  1       -2 0.18281817E-01 0.62934327E+03</pdfrwt>
<totfact> 0.92508735E+02</totfact>
</mgrwt>
<rwgt>
<wgt id='morphing_basis_vector_1'> +2.0251321e-04 </wgt>
<wgt id='morphing_basis_vector_2'> +1.6436320e-04 </wgt>
<wgt id='morphing_basis_vector_3'> +1.5130728e-04 </wgt>
<wgt id='morphing_basis_vector_4'> +5.1431934e-05 </wgt>
<wgt id='morphing_basis_vector_5'> +1.0339470e-04 </wgt>
</rwgt>
</event>
<event>
 4      1 +5.9529000e-06 6.86769900e+02 7.81860800e-03 9.05792900e-02
        2 -1    0    0  501    0 +0.0000000000e+00 +0.0000000000e+00 +2.7931586895e+02 2.7931586895e+02 0.0000000000e+00 0.0000e+00 -1.0000e+00
       -2 -1    0    0    0  501 -0.0000000000e+00 -0.0000000000e+00 -4.2215006713e+02 4.2215006713e+02 0.0000000000e+00 0.0000e+00 1.0000e+00
      -13  1    1    2    0    0 +8.8095855297e+01 -2.8886801927e+02 +9.5504597421e+01 3.1674396664e+02 0.0000000000e+00 0.0000e+00 1.0000e+00
       13  1    1    2    0    0 -8.8095855297e+01 +2.8886801927e+02 -2.3833879561e+02 3.8472196944e+02 0.0000000000e+00 0.0000e+00 -1.0000e+00
<mgrwt>
<rscale>  0 0.68676987E+03</rscale>
<asrwt>0</asrwt>
<pdfrwt beam="1">  1        2 0.42971672E-01 0.68676987E+03</pdfrwt>
<pdfrwt beam="2">  1       -2 0.64946164E-01 0.68676987E+03</pdfrwt>
<totfact> 0.32532699E+02</totfact>
</mgrwt>
<rwgt>
<wgt id='morphing_basis_vector_1'> +2.8654922e-04 </wgt>
<wgt id='morphing_basis_vector_2'> +2.6905954e-04 </wgt>
<wgt id='morphing_basis_vector_3'> +2.2041868e-04 </wgt>
<wgt id='morphing_basis_vector_4'> +6.1282651e-05 </wgt>
<wgt id='morphing_basis_vector_5'> +1.5778092e-04 </wgt>
</rwgt>
</event>
<event>
 4      1 +5.9529000e-06 6.66614500e+02 7.81860800e-03 9.08894800e-02
        2 -1    0    0  501    0 +0.0000000000e+00 +0.0000000000e+00 +1.3633075420e+02 1.3633075420e+02 0.0000000000e+00 0.0000e+00 1.0000e+00
       -2 -1    0    0    0  501 -0.0000000000e+00 -0.0000000000e+00 -8.1488389591e+02 8.1488389591e+02 0.0000000000e+00 0.0000e+00 -1.0000e+00
      -13  1    1    2    0    0 +2.5757265345e+02 +2.0088233198e+02 -2.4466374212e+02 4.0811484881e+02 0.0000000000e+00 0.0000e+00 -1.0000e+00
       13  1    1    2    0    0 -2.5757265345e+02 -2.0088233198e+02 -4.3388939959e+02 5.4309980131e+02 0.0000000000e+00 0.0000e+00 1.0000e+00
<mgrwt>
<rscale>  0 0.66661454E+03</rscale>
<asrwt>0</asrwt>
<pdfrwt beam="1">  1        2 0.20973962E-01 0.66661454E+03</pdfrwt>
<pdfrwt beam="2">  1       -2 0.12536675E+00 0.66661454E+03</pdfrwt>
<totfact> 0.16019613E+02</totfact>
</mgrwt>
<rwgt>
<wgt id='morphing_basis_vector_1'> +2.3765686e-04 </wgt>
<wgt id='morphing_basis_vector_2'> +1.7652702e-04 </wgt>
<wgt id='morphing_basis_vector_3'> +1.8920474e-04 </wgt>
<wgt id='morphing_basis_vector_4'> +7.4428743e-05 </wgt>
<wgt id='morphing_basis_vector_5'> +1.3717255e-04 </wgt>
</rwgt>
</event>
<event>
 4      1 +5.9529000e-06 6.95466000e+02 7.81860800e-03 9.04488700e-02
        2 -1    0    0  501    0 +0.0000000000e+00 +0.0000000000e+00 +1.0074033825e+03 1.0074033825e+03 0.0000000000e+00 0.0000e+00 1.0000e+00
       -2 -1    0    0    0  501 -0.0000000000e+00 -0.0000000000e+00 -1.2002961862e+02 1.2002961862e+02 0.0000000000e+00 0.0000e+00 -1.0000e+00
      -13  1    1    2    0    0 -3.3315099341e+02 +7.0102523548e+01 +3.2889272127e+02 4.7336494413e+02 0.0000000000e+00 0.0000e+00 -1.0000e+00
       13  1    1    2    0    0 +3.3315099341e+02 -7.0102523548e+01 +5.5848104261e+02 6.5406805699e+02 0.0000000000e+00 0.0000e+00 1.0000e+00
<mgrwt>
<rscale>  0 0.69546601E+03</rscale>
<asrwt>0</asrwt>
<pdfrwt beam="1">  1        2 0.15498513E+00 0.69546601E+03</pdfrwt>
<pdfrwt beam="2">  1       -2 0.18466096E-01 0.69546601E+03</pdfrwt>
<totfact> 0.70207692E+02</totfact>
</mgrwt>
<rwgt>
<wgt id='morphing_basis_vector_1'> +2.6079372e-04 </wgt>
<wgt id='morphing_basis_vector_2'> +1.6301813e-04 </wgt>
<wgt id='morphing_basis_vector_3'> +2.1949258e-04 </wgt>
<wgt id='morphing_basis_vector_4'> +1.0462646e-04 </wgt>
<wgt id='morphing_basis_vector_5'> +1.6849131e-04 </wgt>
</rwgt>
</event>
<event>
 4      1 +5.9529000e-06 7.12612400e+02 7.81860800e-03 9.01974200e-02
        2 -1    0    0  501    0 +0.0000000000e+00 +0.0000000000e+00 +8.1651671250e+02 8.1651671250e+02 0.0000000000e+00 0.0000e+00 1.0000e+00
       -2 -1    0    0    0  501 -0.0000000000e+00 -0.0000000000e+00 -1.5548256327e+02 1.5548256327e+02 0.0000000000e+00 0.0000e+00 -1.0000e+00
      -13  1    1    2    0    0 -2.6668726950e+01 -2.4358084839e+02 -2.2310213796e+01 2.4604998748e+02 0.0000000000e+00 0.0000e+00 -1.0000e+00
       13  1    1    2    0    0 +2.6668726950e+01 +2.4358084839e+02 +6.8334436302e+02 7.2594928829e+02 0.0000000000e+00 0.0000e+00 1.0000e+00
<mgrwt>
<rscale>  0 0.71261241E+03</rscale>
<asrwt>0</asrwt>
<pdfrwt beam="1">  1        2 0.12561795E+00 0.71261241E+03</pdfrwt>
<pdfrwt beam="2">  1       -2 0.23920395E-01 0.71261241E+03</pdfrwt>
<totfact> 0.60433707E+02</totfact>
</mgrwt>
<rwgt>
<wgt id='morphing_basis_vector_1'> +2.7929914e-04 </wgt>
<wgt id='morphing_basis_vector_2'> +1.6505689e-04 </wgt>
<wgt id='morphing_basis_vector_3'> +2.3968188e-04 </wgt>
<wgt id='morphing_basis_vector_4'> +1.2166746e-04 </wgt>
<wgt id='morphing_basis_vector_5'> +1.8931266e-04 </wgt>
</rwgt>
</event>
<event>
 4      1 +5.9529000e-06 6.39685900e+02 7.81860800e-03 9.13222800e-02
        2 -1    0    0  501    0 +0.0000000000e+00 +0.0000000000e+00 +2.5279079482e+02 2.5279079482e+02 0.0000000000e+00 0.0000e+00 1.0000e+00
       -2 -1    0    0    0  501 -0.0000000000e+00 -0.0000000000e+00 -4.0468058232e+02 4.0468058232e+02 0.0000000000e+00 0.0000e+00 -1.0000e+00
      -13  1    1    2    0    0 +2.4854715953e+02 +6.6310460408e+00 -2.8273491160e+02 3.7650855437e+02 0.0000000000e+00 0.0000e+00 -1.0000e+00
       13  1    1    2    0    0 -2.4854715953e+02 -6.6310460408e+00 +1.3084512409e+02 2.8096282277e+02 0.0000000000e+00 0.0000e+00 1.0000e+00
<mgrwt>
<rscale>  0 0.63968594E+03</rscale>
<asrwt>0</asrwt>
<pdfrwt beam="1">  1        2 0.38890892E-01 0.63968594E+03</pdfrwt>
<pdfrwt beam="2">  1       -2 0.62258551E-01 0.63968594E+03</pdfrwt>
<totfact> 0.39820020E+02</totfact>
</mgrwt>
<rwgt>
<wgt id='morphing_basis_vector_1'> +1.9397507e-04 </wgt>
<wgt id='morphing_basis_vector_2'> +1.1258936e-04 </wgt>
<wgt id='morphing_basis_vector_3'> +1.5846659e-04 </wgt>
<wgt id='morphing_basis_vector_4'> +7.3071275e-05 </wgt>
<wgt id='morphing_basis_vector_5'> +1.1223566e-04 </wgt>
</rwgt>
</event>
<event>
 4      1 +5.9529000e-06 6.20926300e+02 7.81860800e-03 9.16372200e-02
        2 -1    0    0  501    0 +0.0000000000e+00 +0.0000000000e+00 +1.2565440643e+02 1.2565440643e+02 0.0000000000e+00 0.0000e+00 -1.0000e+00
       -2 -1    0    0    0  501 -0.0000000000e+00 -0.0000000000e+00 -7.6708317240e+02 7.6708317240e+02 0.0000000000e+00 0.0000e+00 1.0000e+00
      -13  1    1    2    0    0 -2.3730127000e+02 -1.1529614695e+02 -8.5422168700e+01 2.7731217274e+02 0.0000000000e+00 0.0000e+00 -1.0000e+00
       13  1    1    2    0    0 +2.3730127000e+02 +1.1529614695e+02 -5.5600659728e+02 6.1542540609e+02 0.0000000000e+00 0.0000e+00 1.0000e+00
<mgrwt>
<rscale>  0 0.62092634E+03</rscale>
<asrwt>0</asrwt>
<pdfrwt beam="1">  1        2 0.19331447E-01 0.62092634E+03</pdfrwt>
<pdfrwt beam="2">  1       -2 0.11801280E+00 0.62092634E+03</pdfrwt>
<totfact> 0.20715119E+02</totfact>
</mgrwt>
<rwgt>
<wgt id='morphing_basis_vector_1'> +2.0849947e-04 </wgt>
<wgt id='morphing_basis_vector_2'> +2.0277895e-04 </wgt>
<wgt id='morphing_basis_vector_3'> +1.4468555e-04 </wgt>
<wgt id='morphing_basis_vector_4'> +3.5982423e-05 </wgt>
<wgt id='morphing_basis_vector_5'> +9.6660303e-05 </wgt>
</rwgt>
</event>
<event>
 4      1 +5.9529000e-06 7.06619600e+02 7.81860800e-03 9.02844600e-02
        2 -1    0    0  501    0 +0.0000000000e+00 +0.0000000000e+00 +1.1953118008e+03 1.1953118008e+03 0.0000000000e+00 0.0000e+00 -1.0000e+00
       -2 -1    0    0    0  501 -0.0000000000e+00 -0.0000000000e+00 -1.0443116315e+02 1.0443116315e+02 0.0000000000e+00 0.0000e+00 1.0000e+00
      -13  1    1    2    0    0 +5.6872472573e+00 +3.1665855002e+02 +2.5739752148e+02 4.0811575091e+02 0.0000000000e+00 0.0000e+00 1.0000e+00
       13  1    1    2    0    0 -5.6872472573e+00 -3.1665855002e+02 +8.3348311622e+02 8.9162721308e+02 0.0000000000e+00 0.0000e+00 -1.0000e+00
<mgrwt>
<rscale>  0 0.70661956E+03</rscale>
<asrwt>0</asrwt>
<pdfrwt beam="1">  1        2 0.18389411E+00 0.70661956E+03</pdfrwt>
<pdfrwt beam="2">  1       -2 0.16066334E-01 0.70661956E+03</pdfrwt>
<totfact> 0.68155140E+02</totfact>
</mgrwt>
<rwgt>
<wgt id='morphing_basis_vector_1'> +2.7257386e-04 </wgt>
<wgt id='morphing_basis_vector_2'> +1.6395577e-04 </wgt>
<wgt id='morphing_basis_vector_3'> +2.3245801e-04 </wgt>
<wgt id='morphing_basis_vector_4'> +1.1564811e-04 </wgt>
<wgt id='morphing_basis_vector_5'> +1.8183920e-04 </wgt>
</rwgt>
</event>
<event>
 4      1 +5.9529000e-06 6.69662500e+02 7.81860800e-03 9.08418400e-02
        2 -1    0    0  501    0 +0.0000000000e+00 +0.0000000000e+00 +4.4711426582e+02 4.4711426582e+02 0.0000000000e+00 0.0000e+00 1.0000e+00
       -2 -1    0    0    0  501 -0.0000000000e+00 -0.0000000000e+00 -2.5074568938e+02 2.5074568938e+02 0.0000000000e+00 0.0000e+00 -1.0000e+00
      -13  1    1    2    0    0 -9.7462367429e+01 +4.6288973140e+01 +4.2850159675e+02 4.4187690652e+02 0.0000000000e+00 0.0000e+00 1.0000e+00
       13  1    1    2    0    0 +9.7462367429e+01 -4.6288973140e+01 -2.3213302030e+02 2.5598304868e+02 0.0000000000e+00 0.0000e+00 -1.0000e+00
<mgrwt>
<rscale>  0 0.66966253E+03</rscale>
<asrwt>0</asrwt>
<pdfrwt beam="1">  1        2 0.68786810E-01 0.66966253E+03</pdfrwt>
<pdfrwt beam="2">  1       -2 0.38576260E-01 0.66966253E+03</pdfrwt>
<totfact> 0.53146091E+02</totfact>
</mgrwt>
<rwgt>
<wgt id='morphing_basis_vector_1'> +3.0698232e-04 </wgt>
<wgt id='morphing_basis_vector_2'> +3.8210423e-04 </wgt>
<wgt id='morphing_basis_vector_3'> +2.0963453e-04 </wgt>
<wgt id='morphing_basis_vector_4'> +1.2052422e-05 </wgt>
<wgt id='morphing_basis_vector_5'> +1.3905089e-04 </wgt>
</rwgt>
</event>
<event>
 4      1 +5.9529000e-06 6.34738100e+02 7.81860800e-03 9.14042400e-02
        2 -1    0    0  501    0 +0.0000000000e+00 +0.0000000000e+00 +1.7623982289e+02 1.7623982289e+02 0.0000000000e+00 0.0000e+00 -1.0000e+00
       -2 -1    0    0    0  501 -0.0000000000e+00 -0.0000000000e+00 -5.7151164847e+02 5.7151164847e+02 0.0000000000e+00 0.0000e+00 1.0000e+00
      -13  1    1    2    0    0 +1.3558675470e+02 -1.9748006320e+02 -4.4288760824e+02 5.0351919223e+02 0.0000000000e+00 0.0000e+00 1.0000e+00
       13  1    1    2    0    0 -1.3558675470e+02 +1.9748006320e+02 +4.7615782662e+01 2.4423227913e+02 0.0000000000e+00 0.0000e+00 -1.0000e+00
<mgrwt>
<rscale>  0 0.63473809E+03</rscale>
<asrwt>0</asrwt>
<pdfrwt beam="1">  1        2 0.27113819E-01 0.63473809E+03</pdfrwt>
<pdfrwt beam="2">  1       -2 0.87924868E-01 0.63473809E+03</pdfrwt>
<totfact> 0.28349081E+02</totfact>
</mgrwt>
<rwgt>
<wgt id='morphing_basis_vector_1'> +1.8897063e-04 </wgt>
<wgt id='morphing_basis_vector_2'> +1.0935265e-04 </wgt>
<wgt id='morphing_basis_vector_3'> +1.5384683e-04 </wgt>
<wgt id='morphing_basis_vector_4'> +7.0462571e-05 </wgt>
<wgt id='morphing_basis_vector_5'> +1.0798955e-04 </wgt>
</rwgt>
</event>
<event>
 4      1 +5.9529000e-06 6.49719000e+02 7.81860800e-03 9.11584600e-02
        2 -1    0    0  501    0 +0.0000000000e+00 +0.0000000000e+00 +9.3397358367e+02 9.3397358367e+02 0.0000000000e+00 0.0000e+00 1.0000e+00
       -2 -1    0    0    0  501 -0.0000000000e+00 -0.0000000000e+00 -1.1299431515e+02 1.1299431515e+02 0.0000000000e+00 0.0000e+00 -1.0000e+00
      -13  1    1    2    0    0 +1.6331630458e+02 +4.3524521619e+01 -3.6564747212e+01 1.7292651636e+02 0.0000000000e+00 0.0000e+00 -1.0000e+00
       13  1    1    2    0    0 -1.6331630458e+02 -4.3524521619e+01 +8.5754401574e+02 8.7404138246e+02 0.0000000000e+00 0.0000e+00 1.0000e+00
<mgrwt>
<rscale>  0 0.64971903E+03</rscale>
<asrwt>0</asrwt>
<pdfrwt beam="1">  1        2 0.14368824E+00 0.64971903E+03</pdfrwt>
<pdfrwt beam="2">  1       -2 0.17383741E-01 0.64971903E+03</pdfrwt>
<totfact> 0.86307735E+02</totfact>
</mgrwt>
<rwgt>
<wgt id='morphing_basis_vector_1'> +2.0396383e-04 </wgt>
<wgt id='morphing_basis_vector_2'> +1.1788802e-04 </wgt>
<wgt id='morphing_basis_vector_3'> +1.6807941e-04 </wgt>
<wgt id='morphing_basis_vector_4'> +7.9017717e-05 </wgt>
<wgt id='morphing_basis_vector_5'> +1.2120829e-04 </wgt>
</rwgt>
</event>
<event>
 4      1 +5.9529000e-06 6.74914000e+02 7.81860800e-03 9.07603800e-02
        2 -1    0    0  501    0 +0.0000000000e+00 +0.0000000000e+00 +1.5306442265e+03 1.5306442265e+03 0.0000000000e+00 0.0000e+00 1.0000e+00
       -2 -1    0    0    0  501 -0.0000000000e+00 -0.0000000000e+00 -7.4398242552e+01 7.4398242552e+01 0.0000000000e+00 0.0000e+00 -1.0000e+00
      -13  1    1    2    0    0 -1.9827086481e+02 +1.1918890459e+02 +1.4385464914e+02 2.7241786081e+02 0.0000000000e+00 0.0000e+00 -1.0000e+00
       13  1    1    2    0    0 +1.9827086481e+02 -1.1918890459e+02 +1.3123913348e+03 1.3326246082e+03 0.0000000000e+00 0.0000e+00 1.0000e+00
<mgrwt>
<rscale>  0 0.67491404E+03</rscale>
<asrwt>0</asrwt>
<pdfrwt beam="1">  1        2 0.23548370E+00 0.67491404E+03</pdfrwt>
<pdfrwt beam="2">  1       -2 0.11445885E-01 0.67491404E+03</pdfrwt>
<totfact> 0.76292933E+02</totfact>
</mgrwt>
<rwgt>
<wgt id='morphing_basis_vector_1'> +2.3199454e-04 </wgt>
<wgt id='morphing_basis_vector_2'> +1.3556914e-04 </wgt>
<wgt id='morphing_basis_vector_3'> +1.9443432e-04 </wgt>
<wgt id='morphing_basis_vector_4'> +9.4427205e-05 </wgt>
<wgt id='morphing_basis_vector_5'> +1.4593719e-04 </wgt>
</rwgt>
</event>
<event>
 4      1 +5.9529000e-06 6.42270000e+02 7.81860800e-03 9.12797900e-02
        2 -1    0    0  501    0 +0.0000000000e+00 +0.0000000000e+00 +7.1865798039e+02 7.1865798039e+02 0.0000000000e+00 0.0000e+00 -1.0000e+00
       -2 -1    0    0    0  501 -0.0000000000e+00 -0.0000000000e+00 -1.4350039321e+02 1.4350039321e+02 0.0000000000e+00 0.0000e+00 1.0000e+00
      -13  1    1    2    0    0 +1.3337721349e+02 +2.8490832930e+02 +2.0094224181e+02 3.7328276377e+02 0.0000000000e+00 0.0000e+00 1.0000e+00
       13  1    1    2    0    0 -1.3337721349e+02 -2.8490832930e+02 +3.7421534536e+02 4.8887560983e+02 0.0000000000e+00 0.0000e+00 -1.0000e+00
<mgrwt>
<rscale>  0 0.64227005E+03</rscale>
<asrwt>0</asrwt>
<pdfrwt beam="1">  1        2 0.11056276E+00 0.64227005E+03</pdfrwt>
<pdfrwt beam="2">  1       -2 0.22076984E-01 0.64227005E+03</pdfrwt>
<totfact> 0.81412971E+02</totfact>
</mgrwt>
<rwgt>
<wgt id='morphing_basis_vector_1'> +1.9936449e-04 </wgt>
<wgt id='morphing_basis_vector_2'> +1.2276776e-04 </wgt>
<wgt id='morphing_basis_vector_3'> +1.6138748e-04 </wgt>
<wgt id='morphing_basis_vector_4'> +7.2002876e-05 </wgt>
<wgt id='morphing_basis_vector_5'> +1.1447371e-04 </wgt>
</rwgt>
</event>
<event>
 4      1 +5.9529000e-06 6.60693900e+02 7.81860800e-03 9.09827800e-02
        2 -1    0    0  501    0 +0.0000000000e+00 +0.0000000000e+00 +4.1886882712e+02 4.1886882712e+02 0.0000000000e+00 0.0000e+00 -1.0000e+00
       -2 -1    0    0    0  501 -0.0000000000e+00 -0.0000000000e+00 -2.6053288673e+02 2.6053288673e+02 0.0000000000e+00 0.0000e+00 1.0000e+00
      -13  1    1    2    0    0 +3.2533589914e+01 +2.0157457338e+02 +3.4621014212e+02 4.0193557396e+02 0.0000000000e+00 0.0000e+00 1.0000e+00
       13  1    1    2    0    0 -3.2533589914e+01 -2.0157457338e+02 -1.8787420174e+02 2.7746613989e+02 0.0000000000e+00 0.0000e+00 -1.0000e+00
<mgrwt>
<rscale>  0 0.66069389E+03</rscale>
<asrwt>0</asrwt>
<pdfrwt beam="1">  1        2 0.64441358E-01 0.66069389E+03</pdfrwt>
<pdfrwt beam="2">  1       -2 0.40081983E-01 0.66069389E+03</pdfrwt>
<totfact> 0.53305855E+02</totfact>
</mgrwt>
<rwgt>
<wgt id='morphing_basis_vector_1'> +2.8448101e-04 </wgt>
<wgt id='morphing_basis_vector_2'> +3.3752560e-04 </wgt>
<wgt id='morphing_basis_vector_3'> +1.9499172e-04 </wgt>
<wgt id='morphing_basis_vector_4'> +2.0231704e-05 </wgt>
<wgt id='morphing_basis_vector_5'> +1.3053818e-04 </wgt>
</rwgt>
</event>
<event>
 4      1 +5.9529000e-06 6.57543600e+02 7.81860800e-03 9.10328400e-02
        2 -1    0    0  501    0 +0.0000000000e+00 +0.0000000000e+00 +2.4285298785e+03 2.4285298785e+03 0.0000000000e+00 0.0000e+00 -1.0000e+00
       -2 -1    0    0    0  501 -0.0000000000e+00 -0.0000000000e+00 -4.4508778789e+01 4.4508778789e+01 0.0000000000e+00 0.0000e+00 1.0000e+00
      -13  1    1    2    0    0 -1.7857785043e+02 -2.7599737106e+02 +1.1727220767e+03 1.2179251482e+03 0.0000000000e+00 0.0000e+00 1.0000e+00
       13  1    1    2    0    0 +1.7857785043e+02 +2.7599737106e+02 +1.2112990230e+03 1.2551135090e+03 0.0000000000e+00 0.0000e+00 -1.0000e+00
<mgrwt>
<rscale>  0 0.65754361E+03</rscale>
<asrwt>0</asrwt>
<pdfrwt beam="1">  1        2 0.37361988E+00 0.65754361E+03</pdfrwt>
<pdfrwt beam="2">  1       -2 0.68475063E-02 0.65754361E+03</pdfrwt>
<totfact> 0.54118385E+02</totfact>
</mgrwt>
<rwgt>
<wgt id='morphing_basis_vector_1'> +2.1917800e-04 </wgt>
<wgt id='morphing_basis_vector_2'> +1.4423497e-04 </wgt>
<wgt id='morphing_basis_vector_3'> +1.7744322e-04 </wgt>
<wgt id='morphing_basis_vector_4'> +7.7173694e-05 </wgt>
<wgt id='morphing_basis_vector_5'> +1.2844696e-04 </wgt>
</rwgt>
</event>
<event>
 4      1 +5.9529000e-06 6.62321700e+02 7.81860800e-03 9.09570300e-02
        2 -1    0    0  501    0 +0.0000000000e+00 +0.0000000000e+00 +4.4223924051e+02 4.4223924051e+02 0.0000000000e+00 0.0000e+00 -1.0000e+00
       -2 -1    0    0    0  501 -0.0000000000e+00 -0.0000000000e+00 -2.4798227367e+02 2.4798227367e+02 0.0000000000e+00 0.0000e+00 1.0000e+00
      -13  1    1    2    0    0 +1.1595142004e+02 +1.9292104614e+02 +3.5026868139e+02 4.1635490992e+02 0.0000000000e+00 0.0000e+00 1.0000e+00
       13  1    1    2    0    0 -1.1595142004e+02 -1.9292104614e+02 -1.5601171454e+02 2.7386660426e+02 0.0000000000e+00 0.0000e+00 -1.0000e+00
<mgrwt>
<rscale>  0 0.66232165E+03</rscale>
<asrwt>0</asrwt>
<pdfrwt beam="1">  1        2 0.68036806E-01 0.66232165E+03</pdfrwt>
<pdfrwt beam="2">  1       -2 0.38151119E-01 0.66232165E+03</pdfrwt>
<totfact> 0.54928175E+02</totfact>
</mgrwt>
<rwgt>
<wgt id='morphing_basis_vector_1'> +2.8185209e-04 </wgt>
<wgt id='morphing_basis_vector_2'> +3.2494309e-04 </wgt>
<wgt id='morphing_basis_vector_3'> +1.9599938e-04 </wgt>
<wgt id='morphing_basis_vector_4'> +2.5153083e-05 </wgt>
<wgt id='morphing_basis_vector_5'> +1.3216279e-04 </wgt>
</rwgt>
</event>
<event>
 4      1 +5.9529000e-06 6.77566100e+02 7.81860800e-03 9.07195400e-02
        2 -1    0    0  501    0 +0.0000000000e+00 +0.0000000000e+00 +4.6797338016e+02 4.6797338016e+02 0.0000000000e+00 0.0000e+00 1.0000e+00
       -2 -1    0    0    0  501 -0.0000000000e+00 -0.0000000000e+00 -2.4525745337e+02 2.4525745337e+02 0.0000000000e+00 0.0000e+00 -1.0000e+00
      -13  1    1    2    0    0 +1.0924160988e+02 -7.2802520175e+01 -2.1739513857e+02 2.5395783616e+02 0.0000000000e+00 0.0000e+00 -1.0000e+00
       13  1    1    2    0    0 -1.0924160988e+02 +7.2802520175e+01 +4.4011106536e+02 4.5927299738e+02 0.0000000000e+00 0.0000e+00 1.0000e+00
<mgrwt>
<rscale>  0 0.67756611E+03</rscale>
<asrwt>0</asrwt>
<pdfrwt beam="1">  1        2 0.71995904E-01 0.67756611E+03</pdfrwt>
<pdfrwt beam="2">  1       -2 0.37731916E-01 0.67756611E+03</pdfrwt>
<totfact> 0.52561478E+02</totfact>
</mgrwt>
<rwgt>
<wgt id='morphing_basis_vector_1'> +2.3489094e-04 </wgt>
<wgt id='morphing_basis_vector_2'> +1.3685531e-04 </wgt>
<wgt id='morphing_basis_vector_3'> +1.9732313e-04 </wgt>
<wgt id='morphing_basis_vector_4'> +9.6388947e-05 </wgt>
<wgt id='morphing_basis_vector_5'> +1.4873587e-04 </wgt>
</rwgt>
</event>
<event>
 4      1 +5.9529000e-06 6.37180000e+02 7.81860800e-03 9.13636900e-02
        2 -1    0    0  501    0 +0.0000000000e+00 +0.0000000000e+00 +3.2872896135e+02 3.2872896135e+02 0.0000000000e+00 0.0000e+00 1.0000e+00
       -2 -1    0    0    0  501 -0.0000000000e+00 -0.0000000000e+00 -3.0876379303e+02 3.0876379303e+02 0.0000000000e+00 0.0000e+00 -1.0000e+00
      -13  1    1    2    0    0 -1.0549428750e+02 +8.2558174007e+01 -2.7921758517e+02 3.0968912906e+02 0.0000000000e+00 0.0000e+00 -1.0000e+00
       13  1    1    2    0    0 +1.0549428750e+02 -8.2558174007e+01 +2.9918275349e+02 3.2780362532e+02 0.0000000000e+00 0.0000e+00 1.0000e+00
<mgrwt>
<rscale>  0 0.63718004E+03</rscale>
<asrwt>0</asrwt>
<pdfrwt beam="1">  1        2 0.50573686E-01 0.63718004E+03</pdfrwt>
<pdfrwt beam="2">  1       -2 0.47502122E-01 0.63718004E+03</pdfrwt>
<totfact> 0.50799028E+02</totfact>
</mgrwt>
<rwgt>
<wgt id='morphing_basis_vector_1'> +1.9110227e-04 </wgt>
<wgt id='morphing_basis_vector_2'> +1.0993448e-04 </wgt>
<wgt id='morphing_basis_vector_3'> +1.5606357e-04 </wgt>
<wgt id='morphing_basis_vector_4'> +7.2029149e-05 </wgt>
<wgt id='morphing_basis_vector_5'> +1.1007331e-04 </wgt>
</rwgt>
</event>
<event>
 4      1 +5.9529000e-06 6.21696200e+02 7.81860800e-03 9.16240700e-02
        2 -1    0    0  501    0 +0.0000000000e+00 +0.0000000000e+00 +2.2214900503e+02 2.2214900503e+02 0.0000000000e+00 0.0000e+00 -1.0000e+00
       -2 -1    0    0    0  501 -0.0000000000e+00 -0.0000000000e+00 -4.3496277170e+02 4.3496277170e+02 0.0000000000e+00 0.0000e+00 1.0000e+00
      -13  1    1    2    0    0 -2.2160401377e+02 +2.4808776407e+01 -3.3531442339e+02 4.0269042307e+02 0.0000000000e+00 0.0000e+00 1.0000e+00
       13  1    1    2    0    0 +2.2160401377e+02 -2.4808776407e+01 +1.2250065672e+02 2.5442135366e+02 0.0000000000e+00 0.0000e+00 -1.0000e+00
<mgrwt>
<rscale>  0 0.62169622E+03</rscale>
<asrwt>0</asrwt>
<pdfrwt beam="1">  1        2 0.34176770E-01 0.62169622E+03</pdfrwt>
<pdfrwt beam="2">  1       -2 0.66917349E-01 0.62169622E+03</pdfrwt>
<totfact> 0.39722383E+02</totfact>
</mgrwt>
<rwgt>
<wgt id='morphing_basis_vector_1'> +1.7635429e-04 </wgt>
<wgt id='morphing_basis_vector_2'> +1.0142520e-04 </wgt>
<wgt id='morphing_basis_vector_3'> +1.4219166e-04 </wgt>
<wgt id='morphing_basis_vector_4'> +6.3838043e-05 </wgt>
<wgt id='morphing_basis_vector_5'> +9.7337013e-05 </wgt>
</rwgt>
</event>
<event>
 4      1 +5.9529000e-06 6.95865000e+02 7.81860800e-03 9.04429300e-02
        2 -1    0    0  501    0 +0.0000000000e+00 +0.0000000000e+00 +1.2297852051e+03 1.2297852051e+03 0.0000000000e+00 0.0000e+00 1.0000e+00
       -2 -1    0    0    0  501 -0.0000000000e+00 -0.0000000000e+00 -9.8437533456e+01 9.8437533456e+01 0.0000000000e+00 0.0000e+00 -1.0000e+00
      -13  1    1    2    0    0 +1.6622804125e+02 +8.7085939936e+01 +1.1249084748e+03 1.1404537691e+03 0.0000000000e+00 0.0000e+00 1.0000e+00
       13  1    1    2    0    0 -1.6622804125e+02 -8.7085939936e+01 +6.4391967768e+00 1.8776896945e+02 0.0000000000e+00 0.0000e+00 -1.0000e+00
<mgrwt>
<rscale>  0 0.69586499E+03</rscale>
<asrwt>0</asrwt>
<pdfrwt beam="1">  1        2 0.18919771E+00 0.69586499E+03</pdfrwt>
<pdfrwt beam="2">  1       -2 0.15144237E-01 0.69586499E+03</pdfrwt>
<totfact> 0.71694810E+02</totfact>
</mgrwt>
<rwgt>
<wgt id='morphing_basis_vector_1'> +3.4446205e-04 </wgt>
<wgt id='morphing_basis_vector_2'> +4.1975238e-04 </wgt>
<wgt id='morphing_basis_vector_3'> +2.4798355e-04 </wgt>
<wgt id='morphing_basis_vector_4'> +1.8319049e-05 </wgt>
<wgt id='morphing_basis_vector_5'> +1.6678839e-04 </wgt>
</rwgt>
</event>
<event>
 4      1 +5.9529000e-06 6.72374300e+02 7.81860800e-03 9.07996800e-02
        2 -1    0    0  501    0 +0.0000000000e+00 +0.0000000000e+00 +5.8020286941e+02 5.8020286941e+02 0.0000000000e+00 0.0000e+00 -1.0000e+00
       -2 -1    0    0    0  501 -0.0000000000e+00 -0.0000000000e+00 -1.9479702439e+02 1.9479702439e+02 0.0000000000e+00 0.0000e+00 1.0000e+00
      -13  1    1    2    0    0 +2.3000895661e+02 -2.3263257032e+02 +1.0342224511e+02 3.4310085060e+02 0.0000000000e+00 0.0000e+00 1.0000e+00
       13  1    1    2    0    0 -2.3000895661e+02 +2.3263257032e+02 +2.8198359990e+02 4.3189904320e+02 0.0000000000e+00 0.0000e+00 -1.0000e+00
<mgrwt>
<rscale>  0 0.67237428E+03</rscale>
<asrwt>0</asrwt>
<pdfrwt beam="1">  1        2 0.89261980E-01 0.67237428E+03</pdfrwt>
<pdfrwt beam="2">  1       -2 0.29968773E-01 0.67237428E+03</pdfrwt>
<totfact> 0.62125732E+02</totfact>
</mgrwt>
<rwgt>
<wgt id='morphing_basis_vector_1'> +2.3212183e-04 </wgt>
<wgt id='morphing_basis_vector_2'> +1.4322162e-04 </wgt>
<wgt id='morphing_basis_vector_3'> +1.9246248e-04 </wgt>
<wgt id='morphing_basis_vector_4'> +8.9755527e-05 </wgt>
<wgt id='morphing_basis_vector_5'> +1.4323808e-04 </wgt>
</rwgt>
</event>
<event>
 4      1 +5.9529000e-06 6.86868700e+02 7.81860800e-03 9.05778000e-02
        2 -1    0    0  501    0 +0.0000000000e+00 +0.0000000000e+00 +1.0378231326e+03 1.0378231326e+03 0.0000000000e+00 0.0000e+00 -1.0000e+00
       -2 -1    0    0    0  501 -0.0000000000e+00 -0.0000000000e+00 -1.1364861717e+02 1.1364861717e+02 0.0000000000e+00 0.0000e+00 1.0000e+00
      -13  1    1    2    0    0 +5.3254756620e+01 -3.3529763958e+02 +3.7519520650e+02 5.0599606638e+02 0.0000000000e+00 0.0000e+00 1.0000e+00
       13  1    1    2    0    0 -5.3254756620e+01 +3.3529763958e+02 +5.4897930889e+02 6.4547568336e+02 0.0000000000e+00 0.0000e+00 -1.0000e+00
<mgrwt>
<rscale>  0 0.68686873E+03</rscale>
<asrwt>0</asrwt>
<pdfrwt beam="1">  1        2 0.15966509E+00 0.68686873E+03</pdfrwt>
<pdfrwt beam="2">  1       -2 0.17484403E-01 0.68686873E+03</pdfrwt>
<totfact> 0.73616121E+02</totfact>
</mgrwt>
<rwgt>
<wgt id='morphing_basis_vector_1'> +2.5086268e-04 </wgt>
<wgt id='morphing_basis_vector_2'> +1.5866468e-04 </wgt>
<wgt id='morphing_basis_vector_3'> +2.0942837e-04 </wgt>
<wgt id='morphing_basis_vector_4'> +9.7824762e-05 </wgt>
<wgt id='morphing_basis_vector_5'> +1.5872527e-04 </wgt>
</rwgt>
</event>
<event>
 4      1 +5.9529000e-06 6.21287300e+02 7.81860800e-03 9.16310600e-02
        2 -1    0    0  501    0 +0.0000000000e+00 +0.0000000000e+00 +1.4362173688e+02 1.4362173688e+02 0.0000000000e+00 0.0000e+00 -1.0000e+00
       -2 -1    0    0    0  501 -0.0000000000e+00 -0.0000000000e+00 -6.7190016412e+02 6.7190016412e+02 0.0000000000e+00 0.0000e+00 1.0000e+00
      -13  1    1    2    0    0 +1.5765289919e+02 +2.6404633526e+02 -2.0655420438e+02 3.7045855791e+02 0.0000000000e+00 0.0000e+00 1.0000e+00
       13  1    1    2    0    0 -1.5765289919e+02 -2.6404633526e+02 -3.2172422287e+02 4.4506334309e+02 0.0000000000e+00 0.0000e+00 -1.0000e+00
<mgrwt>
<rscale>  0 0.62128727E+03</rscale>
<asrwt>0</asrwt>
<pdfrwt beam="1">  1        2 0.22095652E-01 0.62128727E+03</pdfrwt>
<pdfrwt beam="2">  1       -2 0.10336925E+00 0.62128727E+03</pdfrwt>
<totfact> 0.24600232E+02</totfact>
</mgrwt>
<rwgt>
<wgt id='morphing_basis_vector_1'> +1.8566209e-04 </wgt>
<wgt id='morphing_basis_vector_2'> +1.3120450e-04 </wgt>
<wgt id='morphing_basis_vector_3'> +1.4278195e-04 </wgt>
<wgt id='morphing_basis_vector_4'> +5.5524197e-05 </wgt>
<wgt id='morphing_basis_vector_5'> +9.6993025e-05 </wgt>
</rwgt>
</event>
<event>
 4      1 +5.9529000e-06 6.40802900e+02 7.81860800e-03 9.13038900e-02
        2 -1    0    0  501    0 +0.0000000000e+00 +0.0000000000e+00 +3.4991831647e+02 3.4991831647e+02 0.0000000000e+00 0.0000e+00 -1.0000e+00
       -2 -1    0    0    0  501 -0.0000000000e+00 -0.0000000000e+00 -2.9337447331e+02 2.9337447331e+02 0.0000000000e+00 0.0000e+00 1.0000e+00
      -13  1    1    2    0    0 -4.2506195592e+01 +3.0576461452e+02 -5.7842064046e+01 3.1407718881e+02 0.0000000000e+00 0.0000e+00 1.0000e+00
       13  1    1    2    0    0 +4.2506195592e+01 -3.0576461452e+02 +1.1438590721e+02 3.2921560097e+02 0.0000000000e+00 0.0000e+00 -1.0000e+00
<mgrwt>
<rscale>  0 0.64080294E+03</rscale>
<asrwt>0</asrwt>
<pdfrwt beam="1">  1        2 0.53833587E-01 0.64080294E+03</pdfrwt>
<pdfrwt beam="2">  1       -2 0.45134534E-01 0.64080294E+03</pdfrwt>
<totfact> 0.52235748E+02</totfact>
</mgrwt>
<rwgt>
<wgt id='morphing_basis_vector_1'> +1.9710660e-04 </wgt>
<wgt id='morphing_basis_vector_2'> +1.1947886e-04 </wgt>
<wgt id='morphing_basis_vector_3'> +1.5985254e-04 </wgt>
<wgt id='morphing_basis_vector_4'> +7.1891385e-05 </wgt>
<wgt id='morphing_basis_vector_5'> +1.1319266e-04 </wgt>
</rwgt>
</event>
<event>
 4      1 +5.9529000e-06 6.41179400e+02 7.81860800e-03 9.12977000e-02
        2 -1    0    0  501    0 +0.0000000000e+00 +0.0000000000e+00 +8.8354176774e+02 8.8354176774e+02 0.0000000000e+00 0.0000e+00 1.0000e+00
       -2 -1    0    0    0  501 -0.0000000000e+00 -0.0000000000e+00 -1.1632474116e+02 1.1632474116e+02 0.0000000000e+00 0.0000e+00 -1.0000e+00
      -13  1    1    2    0    0 -1.9135600266e+02 +7.0548767872e+01 +7.6933517828e+02 7.9590882954e+02 0.0000000000e+00 0.0000e+00 1.0000e+00
       13  1    1    2    0    0 +1.9135600266e+02 -7.0548767872e+01 -2.1181516979e+00 2.0395767936e+02 0.0000000000e+00 0.0000e+00 -1.0000e+00
<mgrwt>
<rscale>  0 0.64117944E+03</rscale>
<asrwt>0</asrwt>
<pdfrwt beam="1">  1        2 0.13592950E+00 0.64117944E+03</pdfrwt>
<pdfrwt beam="2">  1       -2 0.17896115E-01 0.64117944E+03</pdfrwt>
<totfact> 0.88707351E+02</totfact>
</mgrwt>
<rwgt>
<wgt id='morphing_basis_vector_1'> +2.5605610e-04 </wgt>
<wgt id='morphing_basis_vector_2'> +3.0091636e-04 </wgt>
<wgt id='morphing_basis_vector_3'> +1.6994929e-04 </wgt>
<wgt id='morphing_basis_vector_4'> +1.9624499e-05 </wgt>
<wgt id='morphing_basis_vector_5'> +1.1299935e-04 </wgt>
</rwgt>
</event>
<event>
 4      1 +5.9529000e-06 7.20947200e+02 7.81860800e-03 9.00778300e-02
        2 -1    0    0  501    0 +0.0000000000e+00 +0.0000000000e+00 +7.1113117264e+01 7.1113117264e+01 0.0000000000e+00 0.0000e+00 1.0000e+00
       -2 -1    0    0    0  501 -0.0000000000e+00 -0.0000000000e+00 -1.8272469412e+03 1.8272469412e+03 0.0000000000e+00 0.0000e+00 -1.0000e+00
      -13  1    1    2    0    0 -3.1942547944e+02 -1.3781601795e+02 -1.1266914149e+03 1.1791774405e+03 0.0000000000e+00 0.0000e+00 -1.0000e+00
       13  1    1    2    0    0 +3.1942547944e+02 +1.3781601795e+02 -6.2944240902e+02 7.1918261797e+02 0.0000000000e+00 0.0000e+00 1.0000e+00
<mgrwt>
<rscale>  0 0.72094723E+03</rscale>
<asrwt>0</asrwt>
<pdfrwt beam="1">  1        2 0.10940480E-01 0.72094723E+03</pdfrwt>
<pdfrwt beam="2">  1       -2 0.28111491E+00 0.72094723E+03</pdfrwt>
<totfact> 0.24676895E+01</totfact>
</mgrwt>
<rwgt>
<wgt id='morphing_basis_vector_1'> +2.9413133e-04 </wgt>
<wgt id='morphing_basis_vector_2'> +1.8271383e-04 </wgt>
<wgt id='morphing_basis_vector_3'> +2.5208678e-04 </wgt>
<wgt id='morphing_basis_vector_4'> +1.2462987e-04 </wgt>
<wgt id='morphing_basis_vector_5'> +1.9989778e-04 </wgt>
</rwgt>
</event>
<event>
 4      1 +5.9529000e-06 6.51648800e+02 7.81860800e-03 9.11273100e-02
        2 -1    0    0  501    0 +0.0000000000e+00 +0.0000000000e+00 +5.4413025112e+02 5.4413025112e+02 0.0000000000e+00 0.0000e+00 -1.0000e+00
       -2 -1    0    0    0  501 -0.0000000000e+00 -0.0000000000e+00 -1.9510316753e+02 1.9510316753e+02 0.0000000000e+00 0.0000e+00 1.0000e+00
      -13  1    1    2    0    0 -3.1329233493e+02 -8.3586270022e+01 +1.3823415504e+02 3.5248749379e+02 0.0000000000e+00 0.0000e+00 1.0000e+00
       13  1    1    2    0    0 +3.1329233493e+02 +8.3586270022e+01 +2.1079292856e+02 3.8674592485e+02 0.0000000000e+00 0.0000e+00 -1.0000e+00
<mgrwt>
<rscale>  0 0.65164879E+03</rscale>
<asrwt>0</asrwt>
<pdfrwt beam="1">  1        2 0.83712345E-01 0.65164879E+03</pdfrwt>
<pdfrwt beam="2">  1       -2 0.30015872E-01 0.65164879E+03</pdfrwt>
<totfact> 0.66771973E+02</totfact>
</mgrwt>
<rwgt>
<wgt id='morphing_basis_vector_1'> +2.1088470e-04 </wgt>
<wgt id='morphing_basis_vector_2'> +1.3424553e-04 </wgt>
<wgt id='morphing_basis_vector_3'> +1.7097230e-04 </wgt>
<wgt id='morphing_basis_vector_4'> +7.5617207e-05 </wgt>
<wgt id='morphing_basis_vector_5'> +1.2292925e-04 </wgt>
</rwgt>
</event>
<event>
 4      1 +5.9529000e-06 7.47788500e+02 7.81860800e-03 8.97040100e-02
        2 -1    0    0  501    0 +0.0000000000e+00 +0.0000000000e+00 +5.9039371655e+02 5.9039371655e+02 0.0000000000e+00 0.0000e+00 1.0000e+00
       -2 -1    0    0    0  501 -0.0000000000e+00 -0.0000000000e+00 -2.3678593259e+02 2.3678593259e+02 0.0000000000e+00 0.0000e+00 -1.0000e+00
      -13  1    1    2    0    0 -2.4944616503e+02 -2.7729462675e+02 +1.4793254030e+02 4.0124772368e+02 0.0000000000e+00 0.0000e+00 -1.0000e+00
       13  1    1    2    0    0 +2.4944616503e+02 +2.7729462675e+02 +2.0567524366e+02 4.2593192546e+02 0.0000000000e+00 0.0000e+00 1.0000e+00
<mgrwt>
<rscale>  0 0.74778854E+03</rscale>
<asrwt>0</asrwt>
<pdfrwt beam="1">  1        2 0.90829802E-01 0.74778854E+03</pdfrwt>
<pdfrwt beam="2">  1       -2 0.36428605E-01 0.74778854E+03</pdfrwt>
<totfact> 0.42807739E+02</totfact>
</mgrwt>
<rwgt>
<wgt id='morphing_basis_vector_1'> +3.3862536e-04 </wgt>
<wgt id='morphing_basis_vector_2'> +2.2336022e-04 </wgt>
<wgt id='morphing_basis_vector_3'> +2.9294628e-04 </wgt>
<wgt id='morphing_basis_vector_4'> +1.4187799e-04 </wgt>
<wgt id='morphing_basis_vector_5'> +2.3704647e-04 </wgt>
</rwgt>
</event>
<event>
 4      1 +5.9529000e-06 6.31062900e+02 7.81860800e-03 9.14656200e-02
        2 -1    0    0  501    0 +0.0000000000e+00 +0.0000000000e+00 +2.3651590893e+02 2.3651590893e+02 0.0000000000e+00 0.0000e+00 -1.0000e+00
       -2 -1    0    0    0  501 -0.0000000000e+00 -0.0000000000e+00 -4.2094465647e+02 4.2094465647e+02 0.0000000000e+00 0.0000e+00 1.0000e+00
      -13  1    1    2    0    0 -2.0195266196e+02 -1.3318658503e+02 -3.0326299938e+02 3.8793297217e+02 0.0000000000e+00 0.0000e+00 1.0000e+00
       13  1    1    2    0    0 +2.0195266196e+02 +1.3318658503e+02 +1.1883425184e+02 2.6952759323e+02 0.0000000000e+00 0.0000e+00 -1.0000e+00
<mgrwt>
<rscale>  0 0.63106294E+03</rscale>
<asrwt>0</asrwt>
<pdfrwt beam="1">  1        2 0.36387063E-01 0.63106294E+03</pdfrwt>
<pdfrwt beam="2">  1       -2 0.64760716E-01 0.63106294E+03</pdfrwt>
<totfact> 0.39598100E+02</totfact>
</mgrwt>
<rwgt>
<wgt id='morphing_basis_vector_1'> +1.8539647e-04 </wgt>
<wgt id='morphing_basis_vector_2'> +1.0723110e-04 </wgt>
<wgt id='morphing_basis_vector_3'> +1.5049547e-04 </wgt>
<wgt id='morphing_basis_vector_4'> +6.8502875e-05 </wgt>
<wgt id='morphing_basis_vector_5'> +1.0490889e-04 </wgt>
</rwgt>
</event>
<event>
 4      1 +5.9529000e-06 6.60625900e+02 7.81860800e-03 9.09838600e-02
        2 -1    0    0  501    0 +0.0000000000e+00 +0.0000000000e+00 +1.3761687815e+03 1.3761687815e+03 0.0000000000e+00 0.0000e+00 1.0000e+00
       -2 -1    0    0    0  501 -0.0000000000e+00 -0.0000000000e+00 -7.9282901972e+01 7.9282901972e+01 0.0000000000e+00 0.0000e+00 -1.0000e+00
      -13  1    1    2    0    0 +2.5408368919e+02 +1.1421880706e+02 +2.5741066634e+02 3.7929501466e+02 0.0000000000e+00 0.0000e+00 -1.0000e+00
       13  1    1    2    0    0 -2.5408368919e+02 -1.1421880706e+02 +1.0394752132e+03 1.0761566688e+03 0.0000000000e+00 0.0000e+00 1.0000e+00
<mgrwt>
<rscale>  0 0.66062593E+03</rscale>
<asrwt>0</asrwt>
<pdfrwt beam="1">  1        2 0.21171826E+00 0.66062593E+03</pdfrwt>
<pdfrwt beam="2">  1       -2 0.12197371E-01 0.66062593E+03</pdfrwt>
<totfact> 0.84015725E+02</totfact>
</mgrwt>
<rwgt>
<wgt id='morphing_basis_vector_1'> +2.1636518e-04 </wgt>
<wgt id='morphing_basis_vector_2'> +1.2721494e-04 </wgt>
<wgt id='morphing_basis_vector_3'> +1.7926180e-04 </wgt>
<wgt id='morphing_basis_vector_4'> +8.4857634e-05 </wgt>
<wgt id='morphing_basis_vector_5'> +1.3150801e-04 </wgt>
</rwgt>
</event>
<event>
 4      1 +5.9529000e-06 6.37630100e+02 7.81860800e-03 9.13562400e-02
        2 -1    0    0  501    0 +0.0000000000e+00 +0.0000000000e+00 +1.4905435707e+03 1.4905435707e+03 0.0000000000e+00 0.0000e+00 1.0000e+00
       -2 -1    0    0    0  501 -0.0000000000e+00 -0.0000000000e+00 -6.8191930730e+01 6.8191930730e+01 0.0000000000e+00 0.0000e+00 -1.0000e+00
      -13  1    1    2    0    0 +2.1777787592e+02 +2.3053659429e+02 +7.9109213348e+02 8.5229166851e+02 0.0000000000e+00 0.0000e+00 -1.0000e+00
       13  1    1    2    0    0 -2.1777787592e+02 -2.3053659429e+02 +6.3125950649e+02 7.0644383293e+02 0.0000000000e+00 0.0000e+00 1.0000e+00
<mgrwt>
<rscale>  0 0.63763012E+03</rscale>
<asrwt>0</asrwt>
<pdfrwt beam="1">  1        2 0.22931437E+00 0.63763012E+03</pdfrwt>
<pdfrwt beam="2">  1       -2 0.10491067E-01 0.63763012E+03</pdfrwt>
<totfact> 0.92245466E+02</totfact>
</mgrwt>
<rwgt>
<wgt id='morphing_basis_vector_1'> +2.0100101e-04 </wgt>
<wgt id='morphing_basis_vector_2'> +1.3945138e-04 </wgt>
<wgt id='morphing_basis_vector_3'> +1.5794031e-04 </wgt>
<wgt id='morphing_basis_vector_4'> +6.3903586e-05 </wgt>
<wgt id='morphing_basis_vector_5'> +1.1038672e-04 </wgt>
</rwgt>
</event>
<event>
 4      1 +5.9529000e-06 6.57947400e+02 7.81860800e-03 9.10264100e-02
        2 -1    0    0  501    0 +0.0000000000e+00 +0.0000000000e+00 +7.1073601318e+02 7.1073601318e+02 0.0000000000e+00 0.0000e+00 -1.0000e+00
       -2 -1    0    0    0  501 -0.0000000000e+00 -0.0000000000e+00 -1.5226988618e+02 1.5226988618e+02 0.0000000000e+00 0.0000e+00 1.0000e+00
      -13  1    1    2    0    0 -1.5320867039e+02 -1.0622332290e+02 -7.6291763728e+01 2.0143665065e+02 0.0000000000e+00 0.0000e+00 1.0000e+00
       13  1    1    2    0    0 +1.5320867039e+02 +1.0622332290e+02 +6.3475789072e+02 6.6156924871e+02 0.0000000000e+00 0.0000e+00 -1.0000e+00
<mgrwt>
<rscale>  0 0.65794739E+03</rscale>
<asrwt>0</asrwt>
<pdfrwt beam="1">  1        2 0.10934400E+00 0.65794739E+03</pdfrwt>
<pdfrwt beam="2">  1       -2 0.23426137E-01 0.65794739E+03</pdfrwt>
<totfact> 0.74642662E+02</totfact>
</mgrwt>
<rwgt>
<wgt id='morphing_basis_vector_1'> +2.1277852e-04 </wgt>
<wgt id='morphing_basis_vector_2'> +1.2337028e-04 </wgt>
<wgt id='morphing_basis_vector_3'> +1.7635138e-04 </wgt>
<wgt id='morphing_basis_vector_4'> +8.3857182e-05 </wgt>
<wgt id='morphing_basis_vector_5'> +1.2893106e-04 </wgt>
</rwgt>
</event>
<event>
 4      1 +5.9529000e-06 6.89086400e+02 7.81860800e-03 9.05443500e-02
        2 -1    0    0  501    0 +0.0000000000e+00 +0.0000000000e+00 +6.3719384855e+02 6.3719384855e+02 0.0000000000e+00 0.0000e+00 -1.0000e+00
       -2 -1    0    0    0  501 -0.0000000000e+00 -0.0000000000e+00 -1.8630125626e+02 1.8630125626e+02 0.0000000000e+00 0.0000e+00 1.0000e+00
      -13  1    1    2    0    0 -6.7593841952e+01 +1.8841553196e+02 -1.0968189439e+02 2.2825305718e+02 0.0000000000e+00 0.0000e+00 1.0000e+00
       13  1    1    2    0    0 +6.7593841952e+01 -1.8841553196e+02 +5.6057448668e+02 5.9524204763e+02 0.0000000000e+00 0.0000e+00 -1.0000e+00
<mgrwt>
<rscale>  0 0.68908639E+03</rscale>
<asrwt>0</asrwt>
<pdfrwt beam="1">  1        2 0.98029822E-01 0.68908639E+03</pdfrwt>
<pdfrwt beam="2">  1       -2 0.28661732E-01 0.68908639E+03</pdfrwt>
<totfact> 0.60133427E+02</totfact>
</mgrwt>
<rwgt>
<wgt id='morphing_basis_vector_1'> +2.4882883e-04 </wgt>
<wgt id='morphing_basis_vector_2'> +1.4569480e-04 </wgt>
<wgt id='morphing_basis_vector_3'> +2.1054619e-04 </wgt>
<wgt id='morphing_basis_vector_4'> +1.0422409e-04 </wgt>
<wgt id='morphing_basis_vector_5'> +1.6131416e-04 </wgt>
</rwgt>
</event>
<event>
 4      1 +5.9529000e-06 7.01066900e+02 7.81860800e-03 9.03659100e-02
        2 -1    0    0  501    0 +0.0000000000e+00 +0.0000000000e+00 +6.1874832033e+02 6.1874832033e+02 0.0000000000e+00 0.0000e+00 1.0000e+00
       -2 -1    0    0    0  501 -0.0000000000e+00 -0.0000000000e+00 -1.9858430576e+02 1.9858430576e+02 0.0000000000e+00 0.0000e+00 -1.0000e+00
      -13  1    1    2    0    0 -3.2842340679e+02 +6.0736834880e+01 +8.6026388082e+01 3.4489337002e+02 0.0000000000e+00 0.0000e+00 -1.0000e+00
       13  1    1    2    0    0 +3.2842340679e+02 -6.0736834880e+01 +3.3413762648e+02 4.7243925606e+02 0.0000000000e+00 0.0000e+00 1.0000e+00
<mgrwt>
<rscale>  0 0.70106692E+03</rscale>
<asrwt>0</asrwt>
<pdfrwt beam="1">  1        2 0.95192048E-01 0.70106692E+03</pdfrwt>
<pdfrwt beam="2">  1       -2 0.30551432E-01 0.70106692E+03</pdfrwt>
<totfact> 0.55633689E+02</totfact>
</mgrwt>
<rwgt>
<wgt id='morphing_basis_vector_1'> +2.6662102e-04 </wgt>
<wgt id='morphing_basis_vector_2'> +1.6340334e-04 </wgt>
<wgt id='morphing_basis_vector_3'> +2.2593879e-04 </wgt>
<wgt id='morphing_basis_vector_4'> +1.1009851e-04 </wgt>
<wgt id='morphing_basis_vector_5'> +1.7510288e-04 </wgt>
</rwgt>
</event>
<event>
 4      1 +5.9529000e-06 6.54239700e+02 7.81860800e-03 9.10856600e-02
        2 -1    0    0  501    0 +0.0000000000e+00 +0.0000000000e+00 +8.3932088453e+02 8.3932088453e+02 0.0000000000e+00 0.0000e+00 -1.0000e+00
       -2 -1    0    0    0  501 -0.0000000000e+00 -0.0000000000e+00 -1.2749284318e+02 1.2749284318e+02 0.0000000000e+00 0.0000e+00 1.0000e+00
      -13  1    1    2    0    0 -1.7771645059e+02 +2.7446249910e+02 +3.7028758632e+02 4.9398957155e+02 0.0000000000e+00 0.0000e+00 1.0000e+00
       13  1    1    2    0    0 +1.7771645059e+02 -2.7446249910e+02 +3.4154045503e+02 4.7282415616e+02 0.0000000000e+00 0.0000e+00 -1.0000e+00
<mgrwt>
<rscale>  0 0.65423973E+03</rscale>
<asrwt>0</asrwt>
<pdfrwt beam="1">  1        2 0.12912629E+00 0.65423973E+03</pdfrwt>
<pdfrwt beam="2">  1       -2 0.19614284E-01 0.65423973E+03</pdfrwt>
<totfact> 0.81526666E+02</totfact>
</mgrwt>
<rwgt>
<wgt id='morphing_basis_vector_1'> +2.1670769e-04 </wgt>
<wgt id='morphing_basis_vector_2'> +1.4541515e-04 </wgt>
<wgt id='morphing_basis_vector_3'> +1.7424775e-04 </wgt>
<wgt id='morphing_basis_vector_4'> +7.4246894e-05 </wgt>
<wgt id='morphing_basis_vector_5'> +1.2530516e-04 </wgt>
</rwgt>
</event>
<event>
 4      1 +5.9529000e-06 6.28179200e+02 7.81860800e-03 9.15140900e-02
        2 -1    0    0  501    0 +0.0000000000e+00 +0.0000000000e+00 +2.5239041882e+02 2.5239041882e+02 0.0000000000e+00 0.0000e+00 1.0000e+00
       -2 -1    0    0    0  501 -0.0000000000e+00 -0.0000000000e+00 -3.9087172374e+02 3.9087172374e+02 0.0000000000e+00 0.0000e+00 -1.0000e+00
      -13  1    1    2    0    0 -2.4624167641e+02 +1.8229161665e+02 +1.6093455389e+00 3.0637850234e+02 0.0000000000e+00 0.0000e+00 -1.0000e+00
       13  1    1    2    0    0 +2.4624167641e+02 -1.8229161665e+02 -1.4009065046e+02 3.3688364022e+02 0.0000000000e+00 0.0000e+00 1.0000e+00
<mgrwt>
<rscale>  0 0.62817920E+03</rscale>
<asrwt>0</asrwt>
<pdfrwt beam="1">  1        2 0.38829295E-01 0.62817920E+03</pdfrwt>
<pdfrwt beam="2">  1       -2 0.60134111E-01 0.62817920E+03</pdfrwt>
<totfact> 0.42849206E+02</totfact>
</mgrwt>
<rwgt>
<wgt id='morphing_basis_vector_1'> +1.9573071e-04 </wgt>
<wgt id='morphing_basis_vector_2'> +1.4615203e-04 </wgt>
<wgt id='morphing_basis_vector_3'> +1.4949988e-04 </wgt>
<wgt id='morphing_basis_vector_4'> +5.5754645e-05 </wgt>
<wgt id='morphing_basis_vector_5'> +1.0247462e-04 </wgt>
</rwgt>
</event>
<event>
 4      1 +5.9529000e-06 7.11941400e+02 7.81860800e-03 9.02071200e-02
        2 -1    0    0  501    0 +0.0000000000e+00 +0.0000000000e+00 +1.8542224780e+03 1.8542224780e+03 0.0000000000e+00 0.0000e+00 -1.0000e+00
       -2 -1    0    0    0  501 -0.0000000000e+00 -0.0000000000e+00 -6.8338692213e+01 6.8338692213e+01 0.0000000000e+00 0.0000e+00 1.0000e+00
      -13  1    1    2    0    0 +2.7931039647e+02 -1.0645279828e+02 +3.7091895765e+02 4.7636894208e+02 0.0000000000e+00 0.0000e+00 1.0000e+00
       13  1    1    2    0    0 -2.7931039647e+02 +1.0645279828e+02 +1.4149648281e+03 1.4461922281e+03 0.0000000000e+00 0.0000e+00 -1.0000e+00
<mgrwt>
<rscale>  0 0.71194140E+03</rscale>
<asrwt>0</asrwt>
<pdfrwt beam="1">  1        2 0.28526496E+00 0.71194140E+03</pdfrwt>
<pdfrwt beam="2">  1       -2 0.10513646E-01 0.71194140E+03</pdfrwt>
<totfact> 0.57901313E+02</totfact>
</mgrwt>
<rwgt>
<wgt id='morphing_basis_vector_1'> +2.7905606e-04 </wgt>
<wgt id='morphing_basis_vector_2'> +1.6652617e-04 </wgt>
<wgt id='morphing_basis_vector_3'> +2.3906378e-04 </wgt>
<wgt id='morphing_basis_vector_4'> +1.2042459e-04 </wgt>
<wgt id='morphing_basis_vector_5'> +1.8844914e-04 </wgt>
</rwgt>
</event>
<event>
 4      1 +5.9529000e-06 6.76467900e+02 7.81860800e-03 9.07364300e-02
        2 -1    0    0  501    0 +0.0000000000e+00 +0.0000000000e+00 +3.0478341849e+03 3.0478341849e+03 0.0000000000e+00 0.0000e+00 -1.0000e+00
       -2 -1    0    0    0  501 -0.0000000000e+00 -0.0000000000e+00 -3.7535568368e+01 3.7535568368e+01 0.0000000000e+00 0.0000e+00 1.0000e+00
      -13  1    1    2    0    0 -2.3450337713e+02 -2.4045085298e+02 +1.6872321585e+03 1.7203374097e+03 0.0000000000e+00 0.0000e+00 1.0000e+00
       13  1    1    2    0    0 +2.3450337713e+02 +2.4045085298e+02 +1.3230664581e+03 1.3650323436e+03 0.0000000000e+00 0.0000e+00 -1.0000e+00
<mgrwt>
<rscale>  0 0.67646785E+03</rscale>
<asrwt>0</asrwt>
<pdfrwt beam="1">  1        2 0.46889737E+00 0.67646785E+03</pdfrwt>
<pdfrwt beam="2">  1       -2 0.57747052E-02 0.67646785E+03</pdfrwt>
<totfact> 0.29531370E+02</totfact>
</mgrwt>
<rwgt>
<wgt id='morphing_basis_vector_1'> +2.4585939e-04 </wgt>
<wgt id='morphing_basis_vector_2'> +1.7389680e-04 </wgt>
<wgt id='morphing_basis_vector_3'> +1.9952227e-04 </wgt>
<wgt id='morphing_basis_vector_4'> +8.3495351e-05 </wgt>
<wgt id='morphing_basis_vector_5'> +1.4732690e-04 </wgt>
</rwgt>
</event>
<event>
 4      1 +5.9529000e-06 7.10526800e+02 7.81860800e-03 9.02276100e-02
        2 -1    0    0  501    0 +0.0000000000e+00 +0.0000000000e+00 +4.1321720170e+02 4.1321720170e+02 0.0000000000e+00 0.0000e+00 1.0000e+00
       -2 -1    0    0    0  501 -0.0000000000e+00 -0.0000000000e+00 -3.0543762520e+02 3.0543762520e+02 0.0000000000e+00 0.0000e+00 -1.0000e+00
      -13  1    1    2    0    0 +2.1765937643e+02 -7.7845360737e+01 -2.1896758799e+02 3.1840588708e+02 0.0000000000e+00 0.0000e+00 -1.0000e+00
       13  1    1    2    0    0 -2.1765937643e+02 +7.7845360737e+01 +3.2674716448e+02 4.0024893983e+02 0.0000000000e+00 0.0000e+00 1.0000e+00
<mgrwt>
<rscale>  0 0.71052679E+03</rscale>
<asrwt>0</asrwt>
<pdfrwt beam="1">  1        2 0.63571877E-01 0.71052679E+03</pdfrwt>
<pdfrwt beam="2">  1       -2 0.46990404E-01 0.71052679E+03</pdfrwt>
<totfact> 0.40006303E+02</totfact>
</mgrwt>
<rwgt>
<wgt id='morphing_basis_vector_1'> +2.7642905e-04 </wgt>
<wgt id='morphing_basis_vector_2'> +1.6309243e-04 </wgt>
<wgt id='morphing_basis_vector_3'> +2.3695829e-04 </wgt>
<wgt id='morphing_basis_vector_4'> +1.2010115e-04 </wgt>
<wgt id='morphing_basis_vector_5'> +1.8670265e-04 </wgt>
</rwgt>
</event>
<event>
 4      1 +5.9529000e-06 6.55744700e+02 7.81860800e-03 9.10615600e-02
        2 -1    0    0  501    0 +0.0000000000e+00 +0.0000000000e+00 +6.4573900516e+02 6.4573900516e+02 0.0000000000e+00 0.0000e+00 -1.0000e+00
       -2 -1    0    0    0  501 -0.0000000000e+00 -0.0000000000e+00 -1.6647634672e+02 1.6647634672e+02 0.0000000000e+00 0.0000e+00 1.0000e+00
      -13  1    1    2    0    0 +3.2492052826e+02 +1.7100667215e+01 +2.8970705924e+02 4.3565578462e+02 0.0000000000e+00 0.0000e+00 1.0000e+00
       13  1    1    2    0    0 -3.2492052826e+02 -1.7100667215e+01 +1.8955559920e+02 3.7655956726e+02 0.0000000000e+00 0.0000e+00 -1.0000e+00
<mgrwt>
<rscale>  0 0.65574468E+03</rscale>
<asrwt>0</asrwt>
<pdfrwt beam="1">  1        2 0.99344461E-01 0.65574468E+03</pdfrwt>
<pdfrwt beam="2">  1       -2 0.25611746E-01 0.65574468E+03</pdfrwt>
<totfact> 0.71986608E+02</totfact>
</mgrwt>
<rwgt>
<wgt id='morphing_basis_vector_1'> +2.2153390e-04 </wgt>
<wgt id='morphing_basis_vector_2'> +1.5633231e-04 </wgt>
<wgt id='morphing_basis_vector_3'> +1.7649436e-04 </wgt>
<wgt id='morphing_basis_vector_4'> +7.2100362e-05 </wgt>
<wgt id='morphing_basis_vector_5'> +1.2667864e-04 </wgt>
</rwgt>
</event>
<event>
 4      1 +5.9529000e-06 6.99033100e+02 7.81860800e-03 9.03959400e-02
        2 -1    0    0  501    0 +0.0000000000e+00 +0.0000000000e+00 +1.6905449359e+03 1.6905449359e+03 0.0000000000e+00 0.0000e+00 -1.0000e+00
       -2 -1    0    0    0  501 -0.0000000000e+00 -0.0000000000e+00 -7.2261806408e+01 7.2261806408e+01 0.0000000000e+00 0.0000e+00 1.0000e+00
      -13  1    1    2    0    0 -2.0820574758e+02 -2.4673092932e+02 +4.7141105451e+02 5.7136167804e+02 0.0000000000e+00 0.0000e+00 1.0000e+00
       13  1    1    2    0    0 +2.0820574758e+02 +2.4673092932e+02 +1.1468720749e+03 1.1914450642e+03 0.0000000000e+00 0.0000e+00 -1.0000e+00
<mgrwt>
<rscale>  0 0.69903313E+03</rscale>
<asrwt>0</asrwt>
<pdfrwt beam="1">  1        2 0.26008381E+00 0.69903313E+03</pdfrwt>
<pdfrwt beam="2">  1       -2 0.11117202E-01 0.69903313E+03</pdfrwt>
<totfact> 0.65217830E+02</totfact>
</mgrwt>
<rwgt>
<wgt id='morphing_basis_vector_1'> +2.6315650e-04 </wgt>
<wgt id='morphing_basis_vector_2'> +1.5914959e-04 </wgt>
<wgt id='morphing_basis_vector_3'> +2.2312397e-04 </wgt>
<wgt id='morphing_basis_vector_4'> +1.0949004e-04 </wgt>
<wgt id='morphing_basis_vector_5'> +1.7271680e-04 </wgt>
</rwgt>
</event>
<event>
 4      1 +5.9529000e-06 6.35405900e+02 7.81860800e-03 9.13931300e-02
        2 -1    0    0  501    0 +0.0000000000e+00 +0.0000000000e+00 +1.6851733791e+03 1.6851733791e+03 0.0000000000e+00 0.0000e+00 1.0000e+00
       -2 -1    0    0    0  501 -0.0000000000e+00 -0.0000000000e+00 -5.9896008790e+01 5.9896008790e+01 0.0000000000e+00 0.0000e+00 -1.0000e+00
      -13  1    1    2    0    0 -2.8341257815e+02 +1.4342786271e+02 +8.3020659582e+02 8.8889663797e+02 0.0000000000e+00 0.0000e+00 -1.0000e+00
       13  1    1    2    0    0 +2.8341257815e+02 -1.4342786271e+02 +7.9507077447e+02 8.5617274990e+02 0.0000000000e+00 0.0000e+00 1.0000e+00
<mgrwt>
<rscale>  0 0.63540588E+03</rscale>
<asrwt>0</asrwt>
<pdfrwt beam="1">  1        2 0.25925741E+00 0.63540588E+03</pdfrwt>
<pdfrwt beam="2">  1       -2 0.92147718E-02 0.63540588E+03</pdfrwt>
<totfact> 0.88503427E+02</totfact>
</mgrwt>
<rwgt>
<wgt id='morphing_basis_vector_1'> +1.9630928e-04 </wgt>
<wgt id='morphing_basis_vector_2'> +1.3042626e-04 </wgt>
<wgt id='morphing_basis_vector_3'> +1.5544216e-04 </wgt>
<wgt id='morphing_basis_vector_4'> +6.4947047e-05 </wgt>
<wgt id='morphing_basis_vector_5'> +1.0850909e-04 </wgt>
</rwgt>
</event>
<event>
 4      1 +5.9529000e-06 6.97290600e+02 7.81860800e-03 9.04217500e-02
        2 -1    0    0  501    0 +0.0000000000e+00 +0.0000000000e+00 +1.6304597607e+03 1.6304597607e+03 0.0000000000e+00 0.0000e+00 -1.0000e+00
       -2 -1    0    0    0  501 -0.0000000000e+00 -0.0000000000e+00 -7.4551694911e+01 7.4551694911e+01 0.0000000000e+00 0.0000e+00 1.0000e+00
      -13  1    1    2    0    0 +3.1040593828e+02 -1.3028271722e+02 +5.5615306653e+02 6.5010127390e+02 0.0000000000e+00 0.0000e+00 1.0000e+00
       13  1    1    2    0    0 -3.1040593828e+02 +1.3028271722e+02 +9.9975499929e+02 1.0549101817e+03 0.0000000000e+00 0.0000e+00 -1.0000e+00
<mgrwt>
<rscale>  0 0.69729058E+03</rscale>
<asrwt>0</asrwt>
<pdfrwt beam="1">  1        2 0.25083994E+00 0.69729058E+03</pdfrwt>
<pdfrwt beam="2">  1       -2 0.11469493E-01 0.69729058E+03</pdfrwt>
<totfact> 0.66961990E+02</totfact>
</mgrwt>
<rwgt>
<wgt id='morphing_basis_vector_1'> +2.6228794e-04 </wgt>
<wgt id='morphing_basis_vector_2'> +1.6193872e-04 </wgt>
<wgt id='morphing_basis_vector_3'> +2.2144738e-04 </wgt>
<wgt id='morphing_basis_vector_4'> +1.0679709e-04 </wgt>
<wgt id='morphing_basis_vector_5'> +1.7063525e-04 </wgt>
</rwgt>
</event>
<event>
 4      1 +5.9529000e-06 6.22262000e+02 7.81860800e-03 9.16144200e-02
        2 -1    0    0  501    0 +0.0000000000e+00 +0.0000000000e+00 +2.5587302974e+02 2.5587302974e+02 0.0000000000e+00 0.0000e+00 1.0000e+00
       -2 -1    0    0    0  501 -0.0000000000e+00 -0.0000000000e+00 -3.7832235678e+02 3.7832235678e+02 0.0000000000e+00 0.0000e+00 -1.0000e+00
      -13  1    1    2    0    0 -1.0906672421e+02 -1.7733001388e+01 -3.5765025644e+02 3.7433102410e+02 0.0000000000e+00 0.0000e+00 -1.0000e+00
       13  1    1    2    0    0 +1.0906672421e+02 +1.7733001388e+01 +2.3520092940e+02 2.5986436243e+02 0.0000000000e+00 0.0000e+00 1.0000e+00
<mgrwt>
<rscale>  0 0.62226196E+03</rscale>
<asrwt>0</asrwt>
<pdfrwt beam="1">  1        2 0.39365081E-01 0.62226196E+03</pdfrwt>
<pdfrwt beam="2">  1       -2 0.58203440E-01 0.62226196E+03</pdfrwt>
<totfact> 0.45089283E+02</totfact>
</mgrwt>
<rwgt>
<wgt id='morphing_basis_vector_1'> +1.7667880e-04 </wgt>
<wgt id='morphing_basis_vector_2'> +1.0111386e-04 </wgt>
<wgt id='morphing_basis_vector_3'> +1.4266124e-04 </wgt>
<wgt id='morphing_basis_vector_4'> +6.4290736e-05 </wgt>
<wgt id='morphing_basis_vector_5'> +9.7783720e-05 </wgt>
</rwgt>
</event>
<event>
 4      1 +5.9529000e-06 6.79160400e+02 7.81860800e-03 9.06950800e-02
        2 -1    0    0  501    0 +0.0000000000e+00 +0.0000000000e+00 +1.0629302965e+03 1.0629302965e+03 0.0000000000e+00 0.0000e+00 -1.0000e+00
       -2 -1    0    0    0  501 -0.0000000000e+00 -0.0000000000e+00 -1.0848756182e+02 1.0848756182e+02 0.0000000000e+00 0.0000e+00 1.0000e+00
      -13  1    1    2    0    0 +1.5903873863e+02 -8.8968026934e+01 -1.7006412236e+01 1.8302417398e+02 0.0000000000e+00 0.0000e+00 1.0000e+00
       13  1    1    2    0    0 -1.5903873863e+02 +8.8968026934e+01 +9.7144914690e+02 9.8839368433e+02 0.0000000000e+00 0.0000e+00 -1.0000e+00
<mgrwt>
<rscale>  0 0.67916041E+03</rscale>
<asrwt>0</asrwt>
<pdfrwt beam="1">  1        2 0.16352773E+00 0.67916041E+03</pdfrwt>
<pdfrwt beam="2">  1       -2 0.16690395E-01 0.67916041E+03</pdfrwt>
<totfact> 0.76728638E+02</totfact>
</mgrwt>
<rwgt>
<wgt id='morphing_basis_vector_1'> +2.3682065e-04 </wgt>
<wgt id='morphing_basis_vector_2'> +1.3817214e-04 </wgt>
<wgt id='morphing_basis_vector_3'> +1.9912440e-04 </wgt>
<wgt id='morphing_basis_vector_4'> +9.7408365e-05 </wgt>
<wgt id='morphing_basis_vector_5'> +1.5043292e-04 </wgt>
</rwgt>
</event>
<event>
 4      1 +5.9529000e-06 6.66325000e+02 7.81860800e-03 9.08940200e-02
        2 -1    0    0  501    0 +0.0000000000e+00 +0.0000000000e+00 +2.2162139690e+03 2.2162139690e+03 0.0000000000e+00 0.0000e+00 -1.0000e+00
       -2 -1    0    0    0  501 -0.0000000000e+00 -0.0000000000e+00 -5.0084173393e+01 5.0084173393e+01 0.0000000000e+00 0.0000e+00 1.0000e+00
      -13  1    1    2    0    0 -3.1337594127e+02 -7.8575286469e+01 +1.3597698415e+03 1.3976239044e+03 0.0000000000e+00 0.0000e+00 1.0000e+00
       13  1    1    2    0    0 +3.1337594127e+02 +7.8575286469e+01 +8.0635995406e+02 8.6867423798e+02 0.0000000000e+00 0.0000e+00 -1.0000e+00
<mgrwt>
<rscale>  0 0.66632498E+03</rscale>
<asrwt>0</asrwt>
<pdfrwt beam="1">  1        2 0.34095592E+00 0.66632498E+03</pdfrwt>
<pdfrwt beam="2">  1       -2 0.77052592E-02 0.66632498E+03</pdfrwt>
<totfact> 0.59519949E+02</totfact>
</mgrwt>
<rwgt>
<wgt id='morphing_basis_vector_1'> +2.3981344e-04 </wgt>
<wgt id='morphing_basis_vector_2'> +1.8399482e-04 </wgt>
<wgt id='morphing_basis_vector_3'> +1.8949832e-04 </wgt>
<wgt id='morphing_basis_vector_4'> +7.1861103e-05 </wgt>
<wgt id='morphing_basis_vector_5'> +1.3684145e-04 </wgt>
</rwgt>
</event>
<event>
 4      1 +5.9529000e-06 6.24956200e+02 7.81860800e-03 9.15685900e-02
        2 -1    0    0  501    0 +0.0000000000e+00 +0.0000000000e+00 +1.5472459986e+02 1.5472459986e+02 0.0000000000e+00 0.0000e+00 -1.0000e+00
       -2 -1    0    0    0  501 -0.0000000000e+00 -0.0000000000e+00 -6.3107333447e+02 6.3107333447e+02 0.0000000000e+00 0.0000e+00 1.0000e+00
      -13  1    1    2    0    0 +2.0217481111e+02 +1.9541693684e+02 -4.0956446605e+02 4.9679521465e+02 0.0000000000e+00 0.0000e+00 1.0000e+00
       13  1    1    2    0    0 -2.0217481111e+02 -1.9541693684e+02 -6.6784268564e+01 2.8900271967e+02 0.0000000000e+00 0.0000e+00 -1.0000e+00
<mgrwt>
<rscale>  0 0.62495622E+03</rscale>
<asrwt>0</asrwt>
<pdfrwt beam="1">  1        2 0.23803785E-01 0.62495622E+03</pdfrwt>
<pdfrwt beam="2">  1       -2 0.97088205E-01 0.62495622E+03</pdfrwt>
<totfact> 0.26194841E+02</totfact>
</mgrwt>
<rwgt>
<wgt id='morphing_basis_vector_1'> +1.8023550e-04 </wgt>
<wgt id='morphing_basis_vector_2'> +1.0581737e-04 </wgt>
<wgt id='morphing_basis_vector_3'> +1.4512462e-04 </wgt>
<wgt id='morphing_basis_vector_4'> +6.4777353e-05 </wgt>
<wgt id='morphing_basis_vector_5'> +9.9924723e-05 </wgt>
</rwgt>
</event>
<event>
 4      1 +5.9529000e-06 6.53858500e+02 7.81860800e-03 9.10917800e-02
        2 -1    0    0  501    0 +0.0000000000e+00 +0.0000000000e+00 +1.0633502191e+02 1.0633502191e+02 0.0000000000e+00 0.0000e+00 -1.0000e+00
       -2 -1    0    0    0  501 -0.0000000000e+00 -0.0000000000e+00 -1.0051508387e+03 1.0051508387e+03 0.0000000000e+00 0.0000e+00 1.0000e+00
      -13  1    1    2    0    0 -2.3961822873e+02 -1.2809546456e+02 -7.5847620900e+02 8.0567456408e+02 0.0000000000e+00 0.0000e+00 1.0000e+00
       13  1    1    2    0    0 +2.3961822873e+02 +1.2809546456e+02 -1.4033960783e+02 3.0581129657e+02 0.0000000000e+00 0.0000e+00 -1.0000e+00
<mgrwt>
<rscale>  0 0.65385851E+03</rscale>
<asrwt>0</asrwt>
<pdfrwt beam="1">  1        2 0.16359234E-01 0.65385851E+03</pdfrwt>
<pdfrwt beam="2">  1       -2 0.15463859E+00 0.65385851E+03</pdfrwt>
<totfact> 0.12154824E+02</totfact>
</mgrwt>
<rwgt>
<wgt id='morphing_basis_vector_1'> +2.0893899e-04 </wgt>
<wgt id='morphing_basis_vector_2'> +1.2240777e-04 </wgt>
<wgt id='morphing_basis_vector_3'> +1.7232222e-04 </wgt>
<wgt id='morphing_basis_vector_4'> +8.0887884e-05 </wgt>
<wgt id='morphing_basis_vector_5'> +1.2504394e-04 </wgt>
</rwgt>
</event>
<event>
 4      1 +5.9529000e-06 6.47504600e+02 7.81860800e-03 9.11943500e-02
        2 -1    0    0  501    0 +0.0000000000e+00 +0.0000000000e+00 +7.2187109322e+02 7.2187109322e+02 0.0000000000e+00 0.0000e+00 -1.0000e+00
       -2 -1    0    0    0  501 -0.0000000000e+00 -0.0000000000e+00 -1.4519980784e+02 1.4519980784e+02 0.0000000000e+00 0.0000e+00 1.0000e+00
      -13  1    1    2    0    0 -3.1886875290e+02 -5.2085601963e+01 +2.6071802132e+02 4.1516753022e+02 0.0000000000e+00 0.0000e+00 1.0000e+00
       13  1    1    2    0    0 +3.1886875290e+02 +5.2085601963e+01 +3.1595326406e+02 4.5190337084e+02 0.0000000000e+00 0.0000e+00 -1.0000e+00
<mgrwt>
<rscale>  0 0.64750458E+03</rscale>
<asrwt>0</asrwt>
<pdfrwt beam="1">  1        2 0.11105709E+00 0.64750458E+03</pdfrwt>
<pdfrwt beam="2">  1       -2 0.22338432E-01 0.64750458E+03</pdfrwt>
<totfact> 0.79370582E+02</totfact>
</mgrwt>
<rwgt>
<wgt id='morphing_basis_vector_1'> +2.0709173e-04 </wgt>
<wgt id='morphing_basis_vector_2'> +1.3330076e-04 </wgt>
<wgt id='morphing_basis_vector_3'> +1.6692702e-04 </wgt>
<wgt id='morphing_basis_vector_4'> +7.2770072e-05 </wgt>
<wgt id='morphing_basis_vector_5'> +1.1912691e-04 </wgt>
</rwgt>
</event>
<event>
 4      1 +5.9529000e-06 7.42172500e+02 7.81860800e-03 8.97808300e-02
        2 -1    0    0  501    0 +0.0000000000e+00 +0.0000000000e+00 +1.7888672544e+03 1.7888672544e+03 0.0000000000e+00 0.0000e+00 -1.0000e+00
       -2 -1    0    0    0  501 -0.0000000000e+00 -0.0000000000e+00 -7.6978880039e+01 7.6978880039e+01 0.0000000000e+00 0.0000e+00 1.0000e+00
      -13  1    1    2    0    0 -3.5329047472e+02 +8.3973940661e+01 +6.6383495622e+02 7.5666546858e+02 0.0000000000e+00 0.0000e+00 1.0000e+00
       13  1    1    2    0    0 +3.5329047472e+02 -8.3973940661e+01 +1.0480534181e+03 1.1091806659e+03 0.0000000000e+00 0.0000e+00 -1.0000e+00
<mgrwt>
<rscale>  0 0.74217248E+03</rscale>
<asrwt>0</asrwt>
<pdfrwt beam="1">  1        2 0.27521032E+00 0.74217248E+03</pdfrwt>
<pdfrwt beam="2">  1       -2 0.11842906E-01 0.74217248E+03</pdfrwt>
<totfact> 0.51987540E+02</totfact>
</mgrwt>
<rwgt>
<wgt id='morphing_basis_vector_1'> +3.2630436e-04 </wgt>
<wgt id='morphing_basis_vector_2'> +2.0639207e-04 </wgt>
<wgt id='morphing_basis_vector_3'> +2.8275495e-04 </wgt>
<wgt id='morphing_basis_vector_4'> +1.4115937e-04 </wgt>
<wgt id='morphing_basis_vector_5'> +2.2900438e-04 </wgt>
</rwgt>
</event>
<event>
 4      1 +5.9529000e-06 6.62813100e+02 7.81860800e-03 9.09492700e-02
        2 -1    0    0  501    0 +0.0000000000e+00 +0.0000000000e+00 +6.7073268354e+02 6.7073268354e+02 0.0000000000e+00 0.0000e+00 1.0000e+00
       -2 -1    0    0    0  501 -0.0000000000e+00 -0.0000000000e+00 -1.6374674061e+02 1.6374674061e+02 0.0000000000e+00 0.0000e+00 -1.0000e+00
      -13  1    1    2    0    0 -6.5876333745e+01 -3.2348182957e+02 +2.1678495276e+02 3.9493784467e+02 0.0000000000e+00 0.0000e+00 -1.0000e+00
       13  1    1    2    0    0 +6.5876333745e+01 +3.2348182957e+02 +2.9020099017e+02 4.3954157949e+02 0.0000000000e+00 0.0000e+00 1.0000e+00
<mgrwt>
<rscale>  0 0.66281307E+03</rscale>
<asrwt>0</asrwt>
<pdfrwt beam="1">  1        2 0.10318964E+00 0.66281307E+03</pdfrwt>
<pdfrwt beam="2">  1       -2 0.25191807E-01 0.66281307E+03</pdfrwt>
<totfact> 0.70749602E+02</totfact>
</mgrwt>
<rwgt>
<wgt id='morphing_basis_vector_1'> +2.2347961e-04 </wgt>
<wgt id='morphing_basis_vector_2'> +1.4322952e-04 </wgt>
<wgt id='morphing_basis_vector_3'> +1.8265732e-04 </wgt>
<wgt id='morphing_basis_vector_4'> +8.1704775e-05 </wgt>
<wgt id='morphing_basis_vector_5'> +1.3357216e-04 </wgt>
</rwgt>
</event>
<event>
 4      1 +5.9529000e-06 7.37796600e+02 7.81860800e-03 8.98411900e-02
        2 -1    0    0  501    0 +0.0000000000e+00 +0.0000000000e+00 +1.0199799396e+03 1.0199799396e+03 0.0000000000e+00 0.0000e+00 -1.0000e+00
       -2 -1    0    0    0  501 -0.0000000000e+00 -0.0000000000e+00 -1.3342022888e+02 1.3342022888e+02 0.0000000000e+00 0.0000e+00 1.0000e+00
      -13  1    1    2    0    0 +6.7214402193e+01 -2.5638762739e+02 +4.2166568780e+01 2.6838481861e+02 0.0000000000e+00 0.0000e+00 1.0000e+00
       13  1    1    2    0    0 -6.7214402193e+01 +2.5638762739e+02 +8.4439314191e+02 8.8501534984e+02 0.0000000000e+00 0.0000e+00 -1.0000e+00
<mgrwt>
<rscale>  0 0.73779660E+03</rscale>
<asrwt>0</asrwt>
<pdfrwt beam="1">  1        2 0.15691999E+00 0.73779660E+03</pdfrwt>
<pdfrwt beam="2">  1       -2 0.20526190E-01 0.73779660E+03</pdfrwt>
<totfact> 0.57757364E+02</totfact>
</mgrwt>
<rwgt>
<wgt id='morphing_basis_vector_1'> +3.1501612e-04 </wgt>
<wgt id='morphing_basis_vector_2'> +1.8768119e-04 </wgt>
<wgt id='morphing_basis_vector_3'> +2.7420084e-04 </wgt>
<wgt id='morphing_basis_vector_4'> +1.4268584e-04 </wgt>
<wgt id='morphing_basis_vector_5'> +2.2294095e-04 </wgt>
</rwgt>
</event>
<event>
 4      1 +5.9529000e-06 6.66526800e+02 7.81860800e-03 9.08908600e-02
        2 -1    0    0  501    0 +0.0000000000e+00 +0.0000000000e+00 +2.5548980568e+02 2.5548980568e+02 0.0000000000e+00 0.0000e+00 1.0000e+00
       -2 -1    0    0    0  501 -0.0000000000e+00 -0.0000000000e+00 -4.3471199542e+02 4.3471199542e+02 0.0000000000e+00 0.0000e+00 -1.0000e+00
      -13  1    1    2    0    0 -3.1731868069e+02 -9.7783945383e+01 -1.1911229732e+02 3.5276137042e+02 0.0000000000e+00 0.0000e+00 -1.0000e+00
       13  1    1    2    0    0 +3.1731868069e+02 +9.7783945383e+01 -6.0109892420e+01 3.3744043068e+02 0.0000000000e+00 0.0000e+00 1.0000e+00
<mgrwt>
<rscale>  0 0.66652677E+03</rscale>
<asrwt>0</asrwt>
<pdfrwt beam="1">  1        2 0.39306124E-01 0.66652677E+03</pdfrwt>
<pdfrwt beam="2">  1       -2 0.66878768E-01 0.66652677E+03</pdfrwt>
<totfact> 0.33866538E+02</totfact>
</mgrwt>
<rwgt>
<wgt id='morphing_basis_vector_1'> +2.2778353e-04 </wgt>
<wgt id='morphing_basis_vector_2'> +1.4627134e-04 </wgt>
<wgt id='morphing_basis_vector_3'> +1.8667751e-04 </wgt>
<wgt id='morphing_basis_vector_4'> +8.3820366e-05 </wgt>
<wgt id='morphing_basis_vector_5'> +1.3725176e-04 </wgt>
</rwgt>
</event>
<event>
 4      1 +5.9529000e-06 6.73294200e+02 7.81860800e-03 9.07854300e-02
        2 -1    0    0  501    0 +0.0000000000e+00 +0.0000000000e+00 +1.0729193992e+02 1.0729193992e+02 0.0000000000e+00 0.0000e+00 1.0000e+00
       -2 -1    0    0    0  501 -0.0000000000e+00 -0.0000000000e+00 -1.0562888682e+03 1.0562888682e+03 0.0000000000e+00 0.0000e+00 -1.0000e+00
      -13  1    1    2    0    0 -1.6157326900e+02 +2.9489115664e+02 -4.4638859059e+02 5.5886446419e+02 0.0000000000e+00 0.0000e+00 -1.0000e+00
       13  1    1    2    0    0 +1.6157326900e+02 -2.9489115664e+02 -5.0260833770e+02 6.0471634395e+02 0.0000000000e+00 0.0000e+00 1.0000e+00
<mgrwt>
<rscale>  0 0.67329424E+03</rscale>
<asrwt>0</asrwt>
<pdfrwt beam="1">  1        2 0.16506453E-01 0.67329424E+03</pdfrwt>
<pdfrwt beam="2">  1       -2 0.16250598E+00 0.67329424E+03</pdfrwt>
<totfact> 0.10387077E+02</totfact>
</mgrwt>
<rwgt>
<wgt id='morphing_basis_vector_1'> +2.3934792e-04 </wgt>
<wgt id='morphing_basis_vector_2'> +1.6291288e-04 </wgt>
<wgt id='morphing_basis_vector_3'> +1.9513987e-04 </wgt>
<wgt id='morphing_basis_vector_4'> +8.4281167e-05 </wgt>
<wgt id='morphing_basis_vector_5'> +1.4407172e-04 </wgt>
</rwgt>
</event>
<event>
 4      1 +5.9529000e-06 6.54233700e+02 7.81860800e-03 9.10857600e-02
        2 -1    0    0  501    0 +0.0000000000e+00 +0.0000000000e+00 +6.2789428848e+02 6.2789428848e+02 0.0000000000e+00 0.0000e+00 -1.0000e+00
       -2 -1    0    0    0  501 -0.0000000000e+00 -0.0000000000e+00 -1.7041948744e+02 1.7041948744e+02 0.0000000000e+00 0.0000e+00 1.0000e+00
      -13  1    1    2    0    0 -1.0458017425e+02 +4.2748716682e+01 -1.4585639392e+02 1.8449540177e+02 0.0000000000e+00 0.0000e+00 1.0000e+00
       13  1    1    2    0    0 +1.0458017425e+02 -4.2748716682e+01 +6.0333119497e+02 6.1381837415e+02 0.0000000000e+00 0.0000e+00 -1.0000e+00
<mgrwt>
<rscale>  0 0.65423367E+03</rscale>
<asrwt>0</asrwt>
<pdfrwt beam="1">  1        2 0.96599120E-01 0.65423367E+03</pdfrwt>
<pdfrwt beam="2">  1       -2 0.26218383E-01 0.65423367E+03</pdfrwt>
<totfact> 0.71490501E+02</totfact>
</mgrwt>
<rwgt>
<wgt id='morphing_basis_vector_1'> +2.0870843e-04 </wgt>
<wgt id='morphing_basis_vector_2'> +1.2070163e-04 </wgt>
<wgt id='morphing_basis_vector_3'> +1.7256793e-04 </wgt>
<wgt id='morphing_basis_vector_4'> +8.1698384e-05 </wgt>
<wgt id='morphing_basis_vector_5'> +1.2540469e-04 </wgt>
</rwgt>
</event>
<event>
 4      1 +5.9529000e-06 7.35146300e+02 7.81860800e-03 8.98779600e-02
        2 -1    0    0  501    0 +0.0000000000e+00 +0.0000000000e+00 +1.3555186418e+03 1.3555186418e+03 0.0000000000e+00 0.0000e+00 -1.0000e+00
       -2 -1    0    0    0  501 -0.0000000000e+00 -0.0000000000e+00 -9.9674053789e+01 9.9674053789e+01 0.0000000000e+00 0.0000e+00 1.0000e+00
      -13  1    1    2    0    0 -2.4144089209e+02 -2.7818576609e+01 +8.2070448988e+01 2.5652121974e+02 0.0000000000e+00 0.0000e+00 1.0000e+00
       13  1    1    2    0    0 +2.4144089209e+02 +2.7818576609e+01 +1.1737741390e+03 1.1986714759e+03 0.0000000000e+00 0.0000e+00 -1.0000e+00
<mgrwt>
<rscale>  0 0.73514635E+03</rscale>
<asrwt>0</asrwt>
<pdfrwt beam="1">  1        2 0.20854132E+00 0.73514635E+03</pdfrwt>
<pdfrwt beam="2">  1       -2 0.15334471E-01 0.73514635E+03</pdfrwt>
<totfact> 0.59524485E+02</totfact>
</mgrwt>
<rwgt>
<wgt id='morphing_basis_vector_1'> +3.1096330e-04 </wgt>
<wgt id='morphing_basis_vector_2'> +1.8478243e-04 </wgt>
<wgt id='morphing_basis_vector_3'> +2.7033876e-04 </wgt>
<wgt id='morphing_basis_vector_4'> +1.4050941e-04 </wgt>
<wgt id='morphing_basis_vector_5'> +2.1922099e-04 </wgt>
</rwgt>
</event>
<event>
 4      1 +5.9529000e-06 7.15305700e+02 7.81860800e-03 9.01585900e-02
        2 -1    0    0  501    0 +0.0000000000e+00 +0.0000000000e+00 +9.8326293343e+02 9.8326293343e+02 0.0000000000e+00 0.0000e+00 1.0000e+00
       -2 -1    0    0    0  501 -0.0000000000e+00 -0.0000000000e+00 -1.3009292626e+02 1.3009292626e+02 0.0000000000e+00 0.0000e+00 -1.0000e+00
      -13  1    1    2    0    0 +1.9319028498e+02 +3.2695063274e+01 +8.9229151221e+02 9.1355109115e+02 0.0000000000e+00 0.0000e+00 1.0000e+00
       13  1    1    2    0    0 -1.9319028498e+02 -3.2695063274e+01 -3.9121505044e+01 1.9980476854e+02 0.0000000000e+00 0.0000e+00 -1.0000e+00
<mgrwt>
<rscale>  0 0.71530568E+03</rscale>
<asrwt>0</asrwt>
<pdfrwt beam="1">  1        2 0.15127122E+00 0.71530568E+03</pdfrwt>
<pdfrwt beam="2">  1       -2 0.20014297E-01 0.71530568E+03</pdfrwt>
<totfact> 0.63529471E+02</totfact>
</mgrwt>
<rwgt>
<wgt id='morphing_basis_vector_1'> +3.7824071e-04 </wgt>
<wgt id='morphing_basis_vector_2'> +4.6077544e-04 </wgt>
<wgt id='morphing_basis_vector_3'> +2.8048148e-04 </wgt>
<wgt id='morphing_basis_vector_4'> +2.0166801e-05 </wgt>
<wgt id='morphing_basis_vector_5'> +1.8970277e-04 </wgt>
</rwgt>
</event>
<event>
 4      1 +5.9529000e-06 7.31342300e+02 7.81860800e-03 8.99310300e-02
        2 -1    0    0  501    0 +0.0000000000e+00 +0.0000000000e+00 +7.6456545616e+02 7.6456545616e+02 0.0000000000e+00 0.0000e+00 1.0000e+00
       -2 -1    0    0    0  501 -0.0000000000e+00 -0.0000000000e+00 -1.7489070450e+02 1.7489070450e+02 0.0000000000e+00 0.0000e+00 -1.0000e+00
      -13  1    1    2    0    0 +1.1904959831e+02 -2.6121985736e+02 +3.8707599959e+00 2.8709511232e+02 0.0000000000e+00 0.0000e+00 -1.0000e+00
       13  1    1    2    0    0 -1.1904959831e+02 +2.6121985736e+02 +5.8580399167e+02 6.5236104834e+02 0.0000000000e+00 0.0000e+00 1.0000e+00
<mgrwt>
<rscale>  0 0.73134230E+03</rscale>
<asrwt>0</asrwt>
<pdfrwt beam="1">  1        2 0.11762545E+00 0.73134230E+03</pdfrwt>
<pdfrwt beam="2">  1       -2 0.26906263E-01 0.73134230E+03</pdfrwt>
<totfact> 0.53656556E+02</totfact>
</mgrwt>
<rwgt>
<wgt id='morphing_basis_vector_1'> +3.0582620e-04 </wgt>
<wgt id='morphing_basis_vector_2'> +1.8255197e-04 </wgt>
<wgt id='morphing_basis_vector_3'> +2.6513574e-04 </wgt>
<wgt id='morphing_basis_vector_4'> +1.3674214e-04 </wgt>
<wgt id='morphing_basis_vector_5'> +2.1393689e-04 </wgt>
</rwgt>
</event>
<event>
 4      1 +5.9529000e-06 7.17666200e+02 7.81860800e-03 9.01247100e-02
        2 -1    0    0  501    0 +0.0000000000e+00 +0.0000000000e+00 +1.0807188128e+03 1.0807188128e+03 0.0000000000e+00 0.0000e+00 1.0000e+00
       -2 -1    0    0    0  501 -0.0000000000e+00 -0.0000000000e+00 -1.1914402817e+02 1.1914402817e+02 0.0000000000e+00 0.0000e+00 -1.0000e+00
      -13  1    1    2    0    0 -1.5380809415e+02 -2.6759500056e+02 +1.7479316981e+02 3.5470645097e+02 0.0000000000e+00 0.0000e+00 -1.0000e+00
       13  1    1    2    0    0 +1.5380809415e+02 +2.6759500056e+02 +7.8678161482e+02 8.4515639000e+02 0.0000000000e+00 0.0000e+00 1.0000e+00
<mgrwt>
<rscale>  0 0.71766620E+03</rscale>
<asrwt>0</asrwt>
<pdfrwt beam="1">  1        2 0.16626443E+00 0.71766620E+03</pdfrwt>
<pdfrwt beam="2">  1       -2 0.18329851E-01 0.71766620E+03</pdfrwt>
<totfact> 0.64099009E+02</totfact>
</mgrwt>
<rwgt>
<wgt id='morphing_basis_vector_1'> +2.8704988e-04 </wgt>
<wgt id='morphing_basis_vector_2'> +1.7204275e-04 </wgt>
<wgt id='morphing_basis_vector_3'> +2.4666264e-04 </wgt>
<wgt id='morphing_basis_vector_4'> +1.2475917e-04 </wgt>
<wgt id='morphing_basis_vector_5'> +1.9572169e-04 </wgt>
</rwgt>
</event>
<event>
 4      1 +5.9529000e-06 6.31994700e+02 7.81860800e-03 9.14500100e-02
        2 -1    0    0  501    0 +0.0000000000e+00 +0.0000000000e+00 +1.0330266755e+03 1.0330266755e+03 0.0000000000e+00 0.0000e+00 -1.0000e+00
       -2 -1    0    0    0  501 -0.0000000000e+00 -0.0000000000e+00 -9.6661905473e+01 9.6661905473e+01 0.0000000000e+00 0.0000e+00 1.0000e+00
      -13  1    1    2    0    0 +2.4708714189e+02 +1.3873967899e+02 +2.1822938216e+02 3.5766579016e+02 0.0000000000e+00 0.0000e+00 1.0000e+00
       13  1    1    2    0    0 -2.4708714189e+02 -1.3873967899e+02 +7.1813538785e+02 7.7202279079e+02 0.0000000000e+00 0.0000e+00 -1.0000e+00
<mgrwt>
<rscale>  0 0.63199471E+03</rscale>
<asrwt>0</asrwt>
<pdfrwt beam="1">  1        2 0.15892717E+00 0.63199471E+03</pdfrwt>
<pdfrwt beam="2">  1       -2 0.14871063E-01 0.63199471E+03</pdfrwt>
<totfact> 0.96604471E+02</totfact>
</mgrwt>
<rwgt>
<wgt id='morphing_basis_vector_1'> +1.8700803e-04 </wgt>
<wgt id='morphing_basis_vector_2'> +1.0996538e-04 </wgt>
<wgt id='morphing_basis_vector_3'> +1.5143563e-04 </wgt>
<wgt id='morphing_basis_vector_4'> +6.8378267e-05 </wgt>
<wgt id='morphing_basis_vector_5'> +1.0567983e-04 </wgt>
</rwgt>
</event>
<event>
 4      1 +5.9529000e-06 7.21245000e+02 7.81860800e-03 9.00735900e-02
        2 -1    0    0  501    0 +0.0000000000e+00 +0.0000000000e+00 +1.9660585041e+03 1.9660585041e+03 0.0000000000e+00 0.0000e+00 -1.0000e+00
       -2 -1    0    0    0  501 -0.0000000000e+00 -0.0000000000e+00 -6.6146860031e+01 6.6146860031e+01 0.0000000000e+00 0.0000e+00 1.0000e+00
      -13  1    1    2    0    0 -1.2352630576e+02 -3.2771908360e+02 +7.0773667412e+02 7.8965166109e+02 0.0000000000e+00 0.0000e+00 1.0000e+00
       13  1    1    2    0    0 +1.2352630576e+02 +3.2771908360e+02 +1.1921749700e+03 1.2425537031e+03 0.0000000000e+00 0.0000e+00 -1.0000e+00
<mgrwt>
<rscale>  0 0.72124503E+03</rscale>
<asrwt>0</asrwt>
<pdfrwt beam="1">  1        2 0.30247049E+00 0.72124503E+03</pdfrwt>
<pdfrwt beam="2">  1       -2 0.10176442E-01 0.72124503E+03</pdfrwt>
<totfact> 0.52875823E+02</totfact>
</mgrwt>
<rwgt>
<wgt id='morphing_basis_vector_1'> +2.9492715e-04 </wgt>
<wgt id='morphing_basis_vector_2'> +1.8414665e-04 </wgt>
<wgt id='morphing_basis_vector_3'> +2.5264547e-04 </wgt>
<wgt id='morphing_basis_vector_4'> +1.2445277e-04 </wgt>
<wgt id='morphing_basis_vector_5'> +2.0027480e-04 </wgt>
</rwgt>
</event>
<event>
 4      1 +5.9529000e-06 7.47607300e+02 7.81860800e-03 8.97064800e-02
        2 -1    0    0  501    0 +0.0000000000e+00 +0.0000000000e+00 +9.0871508543e+01 9.0871508543e+01 0.0000000000e+00 0.0000e+00 -1.0000e+00
       -2 -1    0    0    0  501 -0.0000000000e+00 -0.0000000000e+00 -1.5376563822e+03 1.5376563822e+03 0.0000000000e+00 0.0000e+00 1.0000e+00
      -13  1    1    2    0    0 +1.6341307482e+02 -3.2048070727e+02 -5.0213003156e+02 6.1769433003e+02 0.0000000000e+00 0.0000e+00 1.0000e+00
       13  1    1    2    0    0 -1.6341307482e+02 +3.2048070727e+02 -9.4465484205e+02 1.0108335607e+03 0.0000000000e+00 0.0000e+00 -1.0000e+00
<mgrwt>
<rscale>  0 0.74760726E+03</rscale>
<asrwt>0</asrwt>
<pdfrwt beam="1">  1        2 0.13980232E-01 0.74760726E+03</pdfrwt>
<pdfrwt beam="2">  1       -2 0.23656253E+00 0.74760726E+03</pdfrwt>
<totfact> 0.36435561E+01</totfact>
</mgrwt>
<rwgt>
<wgt id='morphing_basis_vector_1'> +3.5876447e-04 </wgt>
<wgt id='morphing_basis_vector_2'> +2.8592352e-04 </wgt>
<wgt id='morphing_basis_vector_3'> +3.0237752e-04 </wgt>
<wgt id='morphing_basis_vector_4'> +1.1804337e-04 </wgt>
<wgt id='morphing_basis_vector_5'> +2.3594916e-04 </wgt>
</rwgt>
</event>
<event>
 4      1 +5.9529000e-06 6.66675800e+02 7.81860800e-03 9.08885200e-02
        2 -1    0    0  501    0 +0.0000000000e+00 +0.0000000000e+00 +1.4380524924e+03 1.4380524924e+03 0.0000000000e+00 0.0000e+00 -1.0000e+00
       -2 -1    0    0    0  501 -0.0000000000e+00 -0.0000000000e+00 -7.7267107534e+01 7.7267107534e+01 0.0000000000e+00 0.0000e+00 1.0000e+00
      -13  1    1    2    0    0 -1.8463135108e+02 -2.6733817533e+02 +8.4981077161e+02 9.0980040851e+02 0.0000000000e+00 0.0000e+00 1.0000e+00
       13  1    1    2    0    0 +1.8463135108e+02 +2.6733817533e+02 +5.1097461330e+02 6.0551919146e+02 0.0000000000e+00 0.0000e+00 -1.0000e+00
<mgrwt>
<rscale>  0 0.66667580E+03</rscale>
<asrwt>0</asrwt>
<pdfrwt beam="1">  1        2 0.22123883E+00 0.66667580E+03</pdfrwt>
<pdfrwt beam="2">  1       -2 0.11887248E-01 0.66667580E+03</pdfrwt>
<totfact> 0.80843423E+02</totfact>
</mgrwt>
<rwgt>
<wgt id='morphing_basis_vector_1'> +2.3905769e-04 </wgt>
<wgt id='morphing_basis_vector_2'> +1.8068372e-04 </wgt>
<wgt id='morphing_basis_vector_3'> +1.8960457e-04 </wgt>
<wgt id='morphing_basis_vector_4'> +7.3177638e-05 </wgt>
<wgt id='morphing_basis_vector_5'> +1.3721093e-04 </wgt>
</rwgt>
</event>
<event>
 4      1 +5.9529000e-06 7.03765400e+02 7.81860800e-03 9.03262300e-02
        2 -1    0    0  501    0 +0.0000000000e+00 +0.0000000000e+00 +1.9931847995e+03 1.9931847995e+03 0.0000000000e+00 0.0000e+00 -1.0000e+00
       -2 -1    0    0    0  501 -0.0000000000e+00 -0.0000000000e+00 -6.2122403899e+01 6.2122403899e+01 0.0000000000e+00 0.0000e+00 1.0000e+00
      -13  1    1    2    0    0 +1.0537306535e+02 -3.1543867146e+02 +6.2978948017e+02 7.1220771387e+02 0.0000000000e+00 0.0000e+00 1.0000e+00
       13  1    1    2    0    0 -1.0537306535e+02 +3.1543867146e+02 +1.3012729154e+03 1.3430994895e+03 0.0000000000e+00 0.0000e+00 -1.0000e+00
<mgrwt>
<rscale>  0 0.70376539E+03</rscale>
<asrwt>0</asrwt>
<pdfrwt beam="1">  1        2 0.30664377E+00 0.70376539E+03</pdfrwt>
<pdfrwt beam="2">  1       -2 0.95572944E-02 0.70376539E+03</pdfrwt>
<totfact> 0.56460771E+02</totfact>
</mgrwt>
<rwgt>
<wgt id='morphing_basis_vector_1'> +2.6988474e-04 </wgt>
<wgt id='morphing_basis_vector_2'> +1.6486089e-04 </wgt>
<wgt id='morphing_basis_vector_3'> +2.2923183e-04 </wgt>
<wgt id='morphing_basis_vector_4'> +1.1236349e-04 </wgt>
<wgt id='morphing_basis_vector_5'> +1.7834268e-04 </wgt>
</rwgt>
</event>
<event>
 4      1 +5.9529000e-06 6.20296800e+02 7.81860800e-03 9.16480000e-02
        2 -1    0    0  501    0 +0.0000000000e+00 +0.0000000000e+00 +4.3941721729e+02 4.3941721729e+02 0.0000000000e+00 0.0000e+00 -1.0000e+00
       -2 -1    0    0    0  501 -0.0000000000e+00 -0.0000000000e+00 -2.1890820950e+02 2.1890820950e+02 0.0000000000e+00 0.0000e+00 1.0000e+00
      -13  1    1    2    0    0 -2.2653167262e+02 +1.8800540253e+02 +6.6511072870e+00 2.9446029836e+02 0.0000000000e+00 0.0000e+00 1.0000e+00
       13  1    1    2    0    0 +2.2653167262e+02 -1.8800540253e+02 +2.1385790051e+02 3.6386512843e+02 0.0000000000e+00 0.0000e+00 -1.0000e+00
<mgrwt>
<rscale>  0 0.62029682E+03</rscale>
<asrwt>0</asrwt>
<pdfrwt beam="1">  1        2 0.67602648E-01 0.62029682E+03</pdfrwt>
<pdfrwt beam="2">  1       -2 0.33678186E-01 0.62029682E+03</pdfrwt>
<totfact> 0.69448027E+02</totfact>
</mgrwt>
<rwgt>
<wgt id='morphing_basis_vector_1'> +1.7658430e-04 </wgt>
<wgt id='morphing_basis_vector_2'> +1.0538089e-04 </wgt>
<wgt id='morphing_basis_vector_3'> +1.4112872e-04 </wgt>
<wgt id='morphing_basis_vector_4'> +6.1868319e-05 </wgt>
<wgt id='morphing_basis_vector_5'> +9.6236482e-05 </wgt>
</rwgt>
</event>
<event>
 4      1 +5.9529000e-06 6.71648900e+02 7.81860800e-03 9.08109400e-02
        2 -1    0    0  501    0 +0.0000000000e+00 +0.0000000000e+00 +8.9853112956e+02 8.9853112956e+02 0.0000000000e+00 0.0000e+00 -1.0000e+00
       -2 -1    0    0    0  501 -0.0000000000e+00 -0.0000000000e+00 -1.2551381103e+02 1.2551381103e+02 0.0000000000e+00 0.0000e+00 1.0000e+00
      -13  1    1    2    0    0 +1.6123939470e+02 -5.9589287296e+01 +8.2636832847e+02 8.4405784154e+02 0.0000000000e+00 0.0000e+00 -1.0000e+00
       13  1    1    2    0    0 -1.6123939470e+02 +5.9589287296e+01 -5.3351009930e+01 1.7998709905e+02 0.0000000000e+00 0.0000e+00 1.0000e+00
<mgrwt>
<rscale>  0 0.67164892E+03</rscale>
<asrwt>0</asrwt>
<pdfrwt beam="1">  1        2 0.13823555E+00 0.67164892E+03</pdfrwt>
<pdfrwt beam="2">  1       -2 0.19309818E-01 0.67164892E+03</pdfrwt>
<totfact> 0.76439500E+02</totfact>
</mgrwt>
<rwgt>
<wgt id='morphing_basis_vector_1'> +3.0638837e-04 </wgt>
<wgt id='morphing_basis_vector_2'> +3.7462693e-04 </wgt>
<wgt id='morphing_basis_vector_3'> +2.1152817e-04 </wgt>
<wgt id='morphing_basis_vector_4'> +1.5714902e-05 </wgt>
<wgt id='morphing_basis_vector_5'> +1.4108868e-04 </wgt>
</rwgt>
</event>
<event>
 4      1 +5.9529000e-06 6.73030100e+02 7.81860800e-03 9.07895200e-02
        2 -1    0    0  501    0 +0.0000000000e+00 +0.0000000000e+00 +1.0398581947e+03 1.0398581947e+03 0.0000000000e+00 0.0000e+00 1.0000e+00
       -2 -1    0    0    0  501 -0.0000000000e+00 -0.0000000000e+00 -1.0890174820e+02 1.0890174820e+02 0.0000000000e+00 0.0000e+00 -1.0000e+00
      -13  1    1    2    0    0 -1.5104980096e+02 +1.0412959364e+02 -1.6032474030e+01 1.8416312027e+02 0.0000000000e+00 0.0000e+00 -1.0000e+00
       13  1    1    2    0    0 +1.5104980096e+02 -1.0412959364e+02 +9.4698892049e+02 9.6459682260e+02 0.0000000000e+00 0.0000e+00 1.0000e+00
<mgrwt>
<rscale>  0 0.67303009E+03</rscale>
<asrwt>0</asrwt>
<pdfrwt beam="1">  1        2 0.15997818E+00 0.67303009E+03</pdfrwt>
<pdfrwt beam="2">  1       -2 0.16754116E-01 0.67303009E+03</pdfrwt>
<totfact> 0.78755927E+02</totfact>
</mgrwt>
<rwgt>
<wgt id='morphing_basis_vector_1'> +2.2966093e-04 </wgt>
<wgt id='morphing_basis_vector_2'> +1.3375484e-04 </wgt>
<wgt id='morphing_basis_vector_3'> +1.9232148e-04 </wgt>
<wgt id='morphing_basis_vector_4'> +9.3340611e-05 </wgt>
<wgt id='morphing_basis_vector_5'> +1.4397763e-04 </wgt>
</rwgt>
</event>
<event>
 4      1 +5.9529000e-06 6.91107800e+02 7.81860800e-03 9.05139800e-02
        2 -1    0    0  501    0 +0.0000000000e+00 +0.0000000000e+00 +3.9768576501e+02 3.9768576501e+02 0.0000000000e+00 0.0000e+00 -1.0000e+00
       -2 -1    0    0    0  501 -0.0000000000e+00 -0.0000000000e+00 -3.0025587152e+02 3.0025587152e+02 0.0000000000e+00 0.0000e+00 1.0000e+00
      -13  1    1    2    0    0 -4.2270519765e+00 -3.3909758139e+02 -1.8292098250e+01 3.3961689966e+02 0.0000000000e+00 0.0000e+00 1.0000e+00
       13  1    1    2    0    0 +4.2270519765e+00 +3.3909758139e+02 +1.1572199174e+02 3.5832473686e+02 0.0000000000e+00 0.0000e+00 -1.0000e+00
<mgrwt>
<rscale>  0 0.69110777E+03</rscale>
<asrwt>0</asrwt>
<pdfrwt beam="1">  1        2 0.61182426E-01 0.69110777E+03</pdfrwt>
<pdfrwt beam="2">  1       -2 0.46193211E-01 0.69110777E+03</pdfrwt>
<totfact> 0.43197264E+02</totfact>
</mgrwt>
<rwgt>
<wgt id='morphing_basis_vector_1'> +2.5544445e-04 </wgt>
<wgt id='morphing_basis_vector_2'> +1.5994843e-04 </wgt>
<wgt id='morphing_basis_vector_3'> +2.1426125e-04 </wgt>
<wgt id='morphing_basis_vector_4'> +1.0141992e-04 </wgt>
<wgt id='morphing_basis_vector_5'> +1.6349520e-04 </wgt>
</rwgt>
</event>
<event>
 4      1 +5.9529000e-06 6.47265100e+02 7.81860800e-03 9.11982400e-02
        2 -1    0    0  501    0 +0.0000000000e+00 +0.0000000000e+00 +2.2408536045e+02 2.2408536045e+02 0.0000000000e+00 0.0000e+00 1.0000e+00
       -2 -1    0    0    0  501 -0.0000000000e+00 -0.0000000000e+00 -4.6740243148e+02 4.6740243148e+02 0.0000000000e+00 0.0000e+00 -1.0000e+00
      -13  1    1    2    0    0 -1.6536391403e+02 -2.7478879655e+02 -7.5288725402e+01 3.2942753216e+02 0.0000000000e+00 0.0000e+00 -1.0000e+00
       13  1    1    2    0    0 +1.6536391403e+02 +2.7478879655e+02 -1.6802834563e+02 3.6206025977e+02 0.0000000000e+00 0.0000e+00 1.0000e+00
<mgrwt>
<rscale>  0 0.64726515E+03</rscale>
<asrwt>0</asrwt>
<pdfrwt beam="1">  1        2 0.34474671E-01 0.64726515E+03</pdfrwt>
<pdfrwt beam="2">  1       -2 0.71908065E-01 0.64726515E+03</pdfrwt>
<totfact> 0.33719915E+02</totfact>
</mgrwt>
<rwgt>
<wgt id='morphing_basis_vector_1'> +2.1247755e-04 </wgt>
<wgt id='morphing_basis_vector_2'> +1.5057565e-04 </wgt>
<wgt id='morphing_basis_vector_3'> +1.6774042e-04 </wgt>
<wgt id='morphing_basis_vector_4'> +6.7490989e-05 </wgt>
<wgt id='morphing_basis_vector_5'> +1.1884869e-04 </wgt>
</rwgt>
</event>
<event>
 4      1 +5.9529000e-06 7.06597000e+02 7.81860800e-03 9.02847900e-02
        2 -1    0    0  501    0 +0.0000000000e+00 +0.0000000000e+00 +6.6654685554e+02 6.6654685554e+02 0.0000000000e+00 0.0000e+00 -1.0000e+00
       -2 -1    0    0    0  501 -0.0000000000e+00 -0.0000000000e+00 -1.8726337501e+02 1.8726337501e+02 0.0000000000e+00 0.0000e+00 1.0000e+00
      -13  1    1    2    0    0 -2.0367574869e+02 +2.8218556892e+02 +1.6606866337e+02 3.8560511779e+02 0.0000000000e+00 0.0000e+00 1.0000e+00
       13  1    1    2    0    0 +2.0367574869e+02 -2.8218556892e+02 +3.1321481716e+02 4.6820511275e+02 0.0000000000e+00 0.0000e+00 -1.0000e+00
<mgrwt>
<rscale>  0 0.70659695E+03</rscale>
<asrwt>0</asrwt>
<pdfrwt beam="1">  1        2 0.10254567E+00 0.70659695E+03</pdfrwt>
<pdfrwt beam="2">  1       -2 0.28809750E-01 0.70659695E+03</pdfrwt>
<totfact> 0.56435285E+02</totfact>
</mgrwt>
<rwgt>
<wgt id='morphing_basis_vector_1'> +2.7594925e-04 </wgt>
<wgt id='morphing_basis_vector_2'> +1.7442895e-04 </wgt>
<wgt id='morphing_basis_vector_3'> +2.3367965e-04 </wgt>
<wgt id='morphing_basis_vector_4'> +1.1199686e-04 </wgt>
<wgt id='morphing_basis_vector_5'> +1.8171214e-04 </wgt>
</rwgt>
</event>
<event>
 4      1 +5.9529000e-06 7.20474000e+02 7.81860800e-03 9.00845800e-02
        2 -1    0    0  501    0 +0.0000000000e+00 +0.0000000000e+00 +5.7771773214e+02 5.7771773214e+02 0.0000000000e+00 0.0000e+00 -1.0000e+00
       -2 -1    0    0    0  501 -0.0000000000e+00 -0.0000000000e+00 -2.2462644592e+02 2.2462644592e+02 0.0000000000e+00 0.0000e+00 1.0000e+00
      -13  1    1    2    0    0 -2.3208831861e+02 +1.8354169640e+02 -5.2273292360e+01 3.0047468953e+02 0.0000000000e+00 0.0000e+00 1.0000e+00
       13  1    1    2    0    0 +2.3208831861e+02 -1.8354169640e+02 +4.0536457858e+02 5.0186948853e+02 0.0000000000e+00 0.0000e+00 -1.0000e+00
<mgrwt>
<rscale>  0 0.72047396E+03</rscale>
<asrwt>0</asrwt>
<pdfrwt beam="1">  1        2 0.88879651E-01 0.72047396E+03</pdfrwt>
<pdfrwt beam="2">  1       -2 0.34557915E-01 0.72047396E+03</pdfrwt>
<totfact> 0.48365454E+02</totfact>
</mgrwt>
<rwgt>
<wgt id='morphing_basis_vector_1'> +2.9060941e-04 </wgt>
<wgt id='morphing_basis_vector_2'> +1.7348606e-04 </wgt>
<wgt id='morphing_basis_vector_3'> +2.5028609e-04 </wgt>
<wgt id='morphing_basis_vector_4'> +1.2739391e-04 </wgt>
<wgt id='morphing_basis_vector_5'> +1.9937450e-04 </wgt>
</rwgt>
</event>
<event>
 4      1 +5.9529000e-06 6.26808200e+02 7.81860800e-03 9.15372300e-02
        2 -1    0    0  501    0 +0.0000000000e+00 +0.0000000000e+00 +3.4688021387e+02 3.4688021387e+02 0.0000000000e+00 0.0000e+00 -1.0000e+00
       -2 -1    0    0    0  501 -0.0000000000e+00 -0.0000000000e+00 -2.8315868438e+02 2.8315868438e+02 0.0000000000e+00 0.0000e+00 1.0000e+00
      -13  1    1    2    0    0 +9.1887371257e+01 +2.5967322521e+02 -1.1840447290e+02 2.9982176720e+02 0.0000000000e+00 0.0000e+00 1.0000e+00
       13  1    1    2    0    0 -9.1887371257e+01 -2.5967322521e+02 +1.8212600239e+02 3.3021713104e+02 0.0000000000e+00 0.0000e+00 -1.0000e+00
<mgrwt>
<rscale>  0 0.62680825E+03</rscale>
<asrwt>0</asrwt>
<pdfrwt beam="1">  1        2 0.53366187E-01 0.62680825E+03</pdfrwt>
<pdfrwt beam="2">  1       -2 0.43562874E-01 0.62680825E+03</pdfrwt>
<totfact> 0.56439819E+02</totfact>
</mgrwt>
<rwgt>
<wgt id='morphing_basis_vector_1'> +1.8181551e-04 </wgt>
<wgt id='morphing_basis_vector_2'> +1.0633077e-04 </wgt>
<wgt id='morphing_basis_vector_3'> +1.4674364e-04 </wgt>
<wgt id='morphing_basis_vector_4'> +6.5867010e-05 </wgt>
<wgt id='morphing_basis_vector_5'> +1.0141798e-04 </wgt>
</rwgt>
</event>
<event>
 4      1 +5.9529000e-06 6.26859500e+02 7.81860800e-03 9.15363700e-02
        2 -1    0    0  501    0 +0.0000000000e+00 +0.0000000000e+00 +8.4144551165e+02 8.4144551165e+02 0.0000000000e+00 0.0000e+00 -1.0000e+00
       -2 -1    0    0    0  501 -0.0000000000e+00 -0.0000000000e+00 -1.1674933466e+02 1.1674933466e+02 0.0000000000e+00 0.0000e+00 1.0000e+00
      -13  1    1    2    0    0 +2.5934490541e+02 +9.4964106585e+01 +5.8886581338e+02 6.5041594974e+02 0.0000000000e+00 0.0000e+00 1.0000e+00
       13  1    1    2    0    0 -2.5934490541e+02 -9.4964106585e+01 +1.3583036360e+02 3.0777889657e+02 0.0000000000e+00 0.0000e+00 -1.0000e+00
<mgrwt>
<rscale>  0 0.62685949E+03</rscale>
<asrwt>0</asrwt>
<pdfrwt beam="1">  1        2 0.12945315E+00 0.62685949E+03</pdfrwt>
<pdfrwt beam="2">  1       -2 0.17961437E-01 0.62685949E+03</pdfrwt>
<totfact> 0.94042032E+02</totfact>
</mgrwt>
<rwgt>
<wgt id='morphing_basis_vector_1'> +2.1044268e-04 </wgt>
<wgt id='morphing_basis_vector_2'> +1.9485105e-04 </wgt>
<wgt id='morphing_basis_vector_3'> +1.5013518e-04 </wgt>
<wgt id='morphing_basis_vector_4'> +4.1488901e-05 </wgt>
<wgt id='morphing_basis_vector_5'> +1.0133998e-04 </wgt>
</rwgt>
</event>
<event>
 4      1 +5.9529000e-06 6.89648000e+02 7.81860800e-03 9.05359000e-02
        2 -1    0    0  501    0 +0.0000000000e+00 +0.0000000000e+00 +2.2710204038e+03 2.2710204038e+03 0.0000000000e+00 0.0000e+00 -1.0000e+00
       -2 -1    0    0    0  501 -0.0000000000e+00 -0.0000000000e+00 -5.2356899138e+01 5.2356899138e+01 0.0000000000e+00 0.0000e+00 1.0000e+00
      -13  1    1    2    0    0 +9.4767294194e+01 -3.2341623876e+02 +8.6349934404e+02 9.2693582340e+02 0.0000000000e+00 0.0000e+00 1.0000e+00
       13  1    1    2    0    0 -9.4767294194e+01 +3.2341623876e+02 +1.3551641607e+03 1.3964414796e+03 0.0000000000e+00 0.0000e+00 -1.0000e+00
<mgrwt>
<rscale>  0 0.68964799E+03</rscale>
<asrwt>0</asrwt>
<pdfrwt beam="1">  1        2 0.34938768E+00 0.68964799E+03</pdfrwt>
<pdfrwt beam="2">  1       -2 0.80549093E-02 0.68964799E+03</pdfrwt>
<totfact> 0.51656369E+02</totfact>
</mgrwt>
<rwgt>
<wgt id='morphing_basis_vector_1'> +2.5329382e-04 </wgt>
<wgt id='morphing_basis_vector_2'> +1.5776308e-04 </wgt>
<wgt id='morphing_basis_vector_3'> +2.1240911e-04 </wgt>
<wgt id='morphing_basis_vector_4'> +1.0075082e-04 </wgt>
<wgt id='morphing_basis_vector_5'> +1.6185478e-04 </wgt>
</rwgt>
</event>
<event>
 4      1 +5.9529000e-06 6.89913300e+02 7.81860800e-03 9.05319200e-02
        2 -1    0    0  501    0 +0.0000000000e+00 +0.0000000000e+00 +4.6794378268e+02 4.6794378268e+02 0.0000000000e+00 0.0000e+00 -1.0000e+00
       -2 -1    0    0    0  501 -0.0000000000e+00 -0.0000000000e+00 -2.5429355414e+02 2.5429355414e+02 0.0000000000e+00 0.0000e+00 1.0000e+00
      -13  1    1    2    0    0 -1.7890126762e+02 +1.4948800327e+02 -1.5933646968e+02 2.8238349322e+02 0.0000000000e+00 0.0000e+00 1.0000e+00
       13  1    1    2    0    0 +1.7890126762e+02 -1.4948800327e+02 +3.7298669822e+02 4.3985384359e+02 0.0000000000e+00 0.0000e+00 -1.0000e+00
<mgrwt>
<rscale>  0 0.68991329E+03</rscale>
<asrwt>0</asrwt>
<pdfrwt beam="1">  1        2 0.71991351E-01 0.68991329E+03</pdfrwt>
<pdfrwt beam="2">  1       -2 0.39122085E-01 0.68991329E+03</pdfrwt>
<totfact> 0.49157252E+02</totfact>
</mgrwt>
<rwgt>
<wgt id='morphing_basis_vector_1'> +2.4996614e-04 </wgt>
<wgt id='morphing_basis_vector_2'> +1.4669229e-04 </wgt>
<wgt id='morphing_basis_vector_3'> +2.1155711e-04 </wgt>
<wgt id='morphing_basis_vector_4'> +1.0468840e-04 </wgt>
<wgt id='morphing_basis_vector_5'> +1.6224224e-04 </wgt>
</rwgt>
</event>
<event>
 4      1 +5.9529000e-06 6.59278100e+02 7.81860800e-03 9.10052400e-02
        2 -1    0    0  501    0 +0.0000000000e+00 +0.0000000000e+00 +2.6934529325e+03 2.6934529325e+03 0.0000000000e+00 0.0000e+00 -1.0000e+00
       -2 -1    0    0    0  501 -0.0000000000e+00 -0.0000000000e+00 -4.0342970519e+01 4.0342970519e+01 0.0000000000e+00 0.0000e+00 1.0000e+00
      -13  1    1    2    0    0 -2.7591850960e+02 +1.6113077196e+02 +9.9050372421e+02 1.0407649962e+03 0.0000000000e+00 0.0000e+00 1.0000e+00
       13  1    1    2    0    0 +2.7591850960e+02 -1.6113077196e+02 +1.6626062377e+03 1.6930309068e+03 0.0000000000e+00 0.0000e+00 -1.0000e+00
<mgrwt>
<rscale>  0 0.65927807E+03</rscale>
<asrwt>0</asrwt>
<pdfrwt beam="1">  1        2 0.41437724E+00 0.65927807E+03</pdfrwt>
<pdfrwt beam="2">  1       -2 0.62066129E-02 0.65927807E+03</pdfrwt>
<totfact> 0.43950706E+02</totfact>
</mgrwt>
<rwgt>
<wgt id='morphing_basis_vector_1'> +2.1703110e-04 </wgt>
<wgt id='morphing_basis_vector_2'> +1.3292599e-04 </wgt>
<wgt id='morphing_basis_vector_3'> +1.7835004e-04 </wgt>
<wgt id='morphing_basis_vector_4'> +8.2010064e-05 </wgt>
<wgt id='morphing_basis_vector_5'> +1.3017032e-04 </wgt>
</rwgt>
</event>
<event>
 4      1 +5.9529000e-06 6.92603000e+02 7.81860800e-03 9.04915900e-02
        2 -1    0    0  501    0 +0.0000000000e+00 +0.0000000000e+00 +2.4387363466e+03 2.4387363466e+03 0.0000000000e+00 0.0000e+00 -1.0000e+00
       -2 -1    0    0    0  501 -0.0000000000e+00 -0.0000000000e+00 -4.9174943572e+01 4.9174943572e+01 0.0000000000e+00 0.0000e+00 1.0000e+00
      -13  1    1    2    0    0 -2.7562714853e+02 -1.2174915820e+02 +5.8167937713e+02 6.5509089469e+02 0.0000000000e+00 0.0000e+00 1.0000e+00
       13  1    1    2    0    0 +2.7562714853e+02 +1.2174915820e+02 +1.8078820259e+03 1.8328203955e+03 0.0000000000e+00 0.0000e+00 -1.0000e+00
<mgrwt>
<rscale>  0 0.69260298E+03</rscale>
<asrwt>0</asrwt>
<pdfrwt beam="1">  1        2 0.37519011E+00 0.69260298E+03</pdfrwt>
<pdfrwt beam="2">  1       -2 0.75653778E-02 0.69260298E+03</pdfrwt>
<totfact> 0.45639248E+02</totfact>
</mgrwt>
<rwgt>
<wgt id='morphing_basis_vector_1'> +2.5419015e-04 </wgt>
<wgt id='morphing_basis_vector_2'> +1.5149895e-04 </wgt>
<wgt id='morphing_basis_vector_3'> +2.1503763e-04 </wgt>
<wgt id='morphing_basis_vector_4'> +1.0569346e-04 </wgt>
<wgt id='morphing_basis_vector_5'> +1.6527438e-04 </wgt>
</rwgt>
</event>
<event>
 4      1 +5.9529000e-06 6.39527100e+02 7.81860800e-03 9.13249000e-02
        2 -1    0    0  501    0 +0.0000000000e+00 +0.0000000000e+00 +2.3933204481e+02 2.3933204481e+02 0.0000000000e+00 0.0000e+00 -1.0000e+00
       -2 -1    0    0    0  501 -0.0000000000e+00 -0.0000000000e+00 -4.2722539515e+02 4.2722539515e+02 0.0000000000e+00 0.0000e+00 1.0000e+00
      -13  1    1    2    0    0 +1.0036943441e+02 +9.4483842264e+00 -4.1022839669e+02 4.2243417568e+02 0.0000000000e+00 0.0000e+00 1.0000e+00
       13  1    1    2    0    0 -1.0036943441e+02 -9.4483842264e+00 +2.2233504635e+02 2.4412326428e+02 0.0000000000e+00 0.0000e+00 -1.0000e+00
<mgrwt>
<rscale>  0 0.63952710E+03</rscale>
<asrwt>0</asrwt>
<pdfrwt beam="1">  1        2 0.36820315E-01 0.63952710E+03</pdfrwt>
<pdfrwt beam="2">  1       -2 0.65726983E-01 0.63952710E+03</pdfrwt>
<totfact> 0.37869161E+02</totfact>
</mgrwt>
<rwgt>
<wgt id='morphing_basis_vector_1'> +1.9344128e-04 </wgt>
<wgt id='morphing_basis_vector_2'> +1.1133477e-04 </wgt>
<wgt id='morphing_basis_vector_3'> +1.5825689e-04 </wgt>
<wgt id='morphing_basis_vector_4'> +7.3317540e-05 </wgt>
<wgt id='morphing_basis_vector_5'> +1.1210068e-04 </wgt>
</rwgt>
</event>
<event>
 4      1 +5.9529000e-06 6.33734100e+02 7.81860800e-03 9.14209600e-02
        2 -1    0    0  501    0 +0.0000000000e+00 +0.0000000000e+00 +6.6695163567e+02 6.6695163567e+02 0.0000000000e+00 0.0000e+00 -1.0000e+00
       -2 -1    0    0    0  501 -0.0000000000e+00 -0.0000000000e+00 -1.5054273803e+02 1.5054273803e+02 0.0000000000e+00 0.0000e+00 1.0000e+00
      -13  1    1    2    0    0 -1.9893484446e+02 +1.7741796341e+02 +3.7200317886e+01 2.6913949865e+02 0.0000000000e+00 0.0000e+00 1.0000e+00
       13  1    1    2    0    0 +1.9893484446e+02 -1.7741796341e+02 +4.7920857976e+02 5.4835487505e+02 0.0000000000e+00 0.0000e+00 -1.0000e+00
<mgrwt>
<rscale>  0 0.63373409E+03</rscale>
<asrwt>0</asrwt>
<pdfrwt beam="1">  1        2 0.10260794E+00 0.63373409E+03</pdfrwt>
<pdfrwt beam="2">  1       -2 0.23160422E-01 0.63373409E+03</pdfrwt>
<totfact> 0.82238302E+02</totfact>
</mgrwt>
<rwgt>
<wgt id='morphing_basis_vector_1'> +1.8830110e-04 </wgt>
<wgt id='morphing_basis_vector_2'> +1.0973641e-04 </wgt>
<wgt id='morphing_basis_vector_3'> +1.5296963e-04 </wgt>
<wgt id='morphing_basis_vector_4'> +6.9650121e-05 </wgt>
<wgt id='morphing_basis_vector_5'> +1.0713972e-04 </wgt>
</rwgt>
</event>
<event>
 4      1 +5.9529000e-06 6.93348400e+02 7.81860800e-03 9.04804400e-02
        2 -1    0    0  501    0 +0.0000000000e+00 +0.0000000000e+00 +1.2979678094e+03 1.2979678094e+03 0.0000000000e+00 0.0000e+00 1.0000e+00
       -2 -1    0    0    0  501 -0.0000000000e+00 -0.0000000000e+00 -9.2593197526e+01 9.2593197526e+01 0.0000000000e+00 0.0000e+00 -1.0000e+00
      -13  1    1    2    0    0 -2.7152161119e+02 +6.3391912191e+01 +1.0158571739e+03 1.0534269399e+03 0.0000000000e+00 0.0000e+00 1.0000e+00
       13  1    1    2    0    0 +2.7152161119e+02 -6.3391912191e+01 +1.8951743796e+02 3.3713406705e+02 0.0000000000e+00 0.0000e+00 -1.0000e+00
<mgrwt>
<rscale>  0 0.69334837E+03</rscale>
<asrwt>0</asrwt>
<pdfrwt beam="1">  1        2 0.19968734E+00 0.69334837E+03</pdfrwt>
<pdfrwt beam="2">  1       -2 0.14245108E-01 0.69334837E+03</pdfrwt>
<totfact> 0.72385976E+02</totfact>
</mgrwt>
<rwgt>
<wgt id='morphing_basis_vector_1'> +3.1116867e-04 </wgt>
<wgt id='morphing_basis_vector_2'> +3.2491660e-04 </wgt>
<wgt id='morphing_basis_vector_3'> +2.3439527e-04 </wgt>
<wgt id='morphing_basis_vector_4'> +4.8217072e-05 </wgt>
<wgt id='morphing_basis_vector_5'> +1.6471050e-04 </wgt>
</rwgt>
</event>
<event>
 4      1 +5.9529000e-06 6.50976100e+02 7.81860800e-03 9.11381600e-02
        2 -1    0    0  501    0 +0.0000000000e+00 +0.0000000000e+00 +7.2016093123e+02 7.2016093123e+02 0.0000000000e+00 0.0000e+00 -1.0000e+00
       -2 -1    0    0    0  501 -0.0000000000e+00 -0.0000000000e+00 -1.4710944980e+02 1.4710944980e+02 0.0000000000e+00 0.0000e+00 1.0000e+00
      -13  1    1    2    0    0 -1.4235281866e+02 +9.3678576628e+00 -1.0323848419e+02 1.7609732069e+02 0.0000000000e+00 0.0000e+00 1.0000e+00
       13  1    1    2    0    0 +1.4235281866e+02 -9.3678576628e+00 +6.7628996562e+02 6.9117306033e+02 0.0000000000e+00 0.0000e+00 -1.0000e+00
<mgrwt>
<rscale>  0 0.65097612E+03</rscale>
<asrwt>0</asrwt>
<pdfrwt beam="1">  1        2 0.11079399E+00 0.65097612E+03</pdfrwt>
<pdfrwt beam="2">  1       -2 0.22632223E-01 0.65097612E+03</pdfrwt>
<totfact> 0.77863463E+02</totfact>
</mgrwt>
<rwgt>
<wgt id='morphing_basis_vector_1'> +2.0526131e-04 </wgt>
<wgt id='morphing_basis_vector_2'> +1.1862001e-04 </wgt>
<wgt id='morphing_basis_vector_3'> +1.6931712e-04 </wgt>
<wgt id='morphing_basis_vector_4'> +7.9771336e-05 </wgt>
<wgt id='morphing_basis_vector_5'> +1.2236686e-04 </wgt>
</rwgt>
</event>
<event>
 4      1 +5.9529000e-06 6.36990800e+02 7.81860800e-03 9.13668300e-02
        2 -1    0    0  501    0 +0.0000000000e+00 +0.0000000000e+00 +4.6652641275e+02 4.6652641275e+02 0.0000000000e+00 0.0000e+00 1.0000e+00
       -2 -1    0    0    0  501 -0.0000000000e+00 -0.0000000000e+00 -2.1743534195e+02 2.1743534195e+02 0.0000000000e+00 0.0000e+00 -1.0000e+00
      -13  1    1    2    0    0 +4.4644613245e+01 -2.0624657803e+02 +3.8069140009e+02 4.3526628005e+02 0.0000000000e+00 0.0000e+00 1.0000e+00
       13  1    1    2    0    0 -4.4644613245e+01 +2.0624657803e+02 -1.3160032929e+02 2.4869547465e+02 0.0000000000e+00 0.0000e+00 -1.0000e+00
<mgrwt>
<rscale>  0 0.63699083E+03</rscale>
<asrwt>0</asrwt>
<pdfrwt beam="1">  1        2 0.71773294E-01 0.63699083E+03</pdfrwt>
<pdfrwt beam="2">  1       -2 0.33451591E-01 0.63699083E+03</pdfrwt>
<totfact> 0.65679188E+02</totfact>
</mgrwt>
<rwgt>
<wgt id='morphing_basis_vector_1'> +2.4862735e-04 </wgt>
<wgt id='morphing_basis_vector_2'> +2.8842300e-04 </wgt>
<wgt id='morphing_basis_vector_3'> +1.6466452e-04 </wgt>
<wgt id='morphing_basis_vector_4'> +2.0918649e-05 </wgt>
<wgt id='morphing_basis_vector_5'> +1.0947524e-04 </wgt>
</rwgt>
</event>
<event>
 4      1 +5.9529000e-06 6.56306500e+02 7.81860800e-03 9.10525800e-02
        2 -1    0    0  501    0 +0.0000000000e+00 +0.0000000000e+00 +9.6836088058e+02 9.6836088058e+02 0.0000000000e+00 0.0000e+00 -1.0000e+00
       -2 -1    0    0    0  501 -0.0000000000e+00 -0.0000000000e+00 -1.1120292426e+02 1.1120292426e+02 0.0000000000e+00 0.0000e+00 1.0000e+00
      -13  1    1    2    0    0 +2.8129247839e+02 -5.5270329331e+01 +6.9127182678e+02 7.4835620275e+02 0.0000000000e+00 0.0000e+00 1.0000e+00
       13  1    1    2    0    0 -2.8129247839e+02 +5.5270329331e+01 +1.6588612954e+02 3.3120760208e+02 0.0000000000e+00 0.0000e+00 -1.0000e+00
<mgrwt>
<rscale>  0 0.65630652E+03</rscale>
<asrwt>0</asrwt>
<pdfrwt beam="1">  1        2 0.14897859E+00 0.65630652E+03</pdfrwt>
<pdfrwt beam="2">  1       -2 0.17108143E-01 0.65630652E+03</pdfrwt>
<totfact> 0.84266715E+02</totfact>
</mgrwt>
<rwgt>
<wgt id='morphing_basis_vector_1'> +2.4672848e-04 </wgt>
<wgt id='morphing_basis_vector_2'> +2.3271068e-04 </wgt>
<wgt id='morphing_basis_vector_3'> +1.8239803e-04 </wgt>
<wgt id='morphing_basis_vector_4'> +4.9343967e-05 </wgt>
<wgt id='morphing_basis_vector_5'> +1.2687008e-04 </wgt>
</rwgt>
</event>
<event>
 4      1 +5.9529000e-06 6.45554600e+02 7.81860800e-03 9.12260800e-02
        2 -1    0    0  501    0 +0.0000000000e+00 +0.0000000000e+00 +3.0121898921e+02 3.0121898921e+02 0.0000000000e+00 0.0000e+00 -1.0000e+00
       -2 -1    0    0    0  501 -0.0000000000e+00 -0.0000000000e+00 -3.4587856709e+02 3.4587856709e+02 0.0000000000e+00 0.0000e+00 1.0000e+00
      -13  1    1    2    0    0 +3.2072613977e+01 -3.1474475880e+02 -8.6453589674e+01 3.2797429613e+02 0.0000000000e+00 0.0000e+00 1.0000e+00
       13  1    1    2    0    0 -3.2072613977e+01 +3.1474475880e+02 +4.1794011792e+01 3.1912326017e+02 0.0000000000e+00 0.0000e+00 -1.0000e+00
<mgrwt>
<rscale>  0 0.64555462E+03</rscale>
<asrwt>0</asrwt>
<pdfrwt beam="1">  1        2 0.46341383E-01 0.64555462E+03</pdfrwt>
<pdfrwt beam="2">  1       -2 0.53212087E-01 0.64555462E+03</pdfrwt>
<totfact> 0.44868866E+02</totfact>
</mgrwt>
<rwgt>
<wgt id='morphing_basis_vector_1'> +2.0282370e-04 </wgt>
<wgt id='morphing_basis_vector_2'> +1.2511298e-04 </wgt>
<wgt id='morphing_basis_vector_3'> +1.6459093e-04 </wgt>
<wgt id='morphing_basis_vector_4'> +7.3732424e-05 </wgt>
<wgt id='morphing_basis_vector_5'> +1.1739326e-04 </wgt>
</rwgt>
</event>
<event>
 4      1 +5.9529000e-06 7.20152700e+02 7.81860800e-03 9.00891600e-02
        2 -1    0    0  501    0 +0.0000000000e+00 +0.0000000000e+00 +1.8019289163e+03 1.8019289163e+03 0.0000000000e+00 0.0000e+00 -1.0000e+00
       -2 -1    0    0    0  501 -0.0000000000e+00 -0.0000000000e+00 -7.1953439635e+01 7.1953439635e+01 0.0000000000e+00 0.0000e+00 1.0000e+00
      -13  1    1    2    0    0 +8.3590107312e+01 +3.3901567858e+02 +6.3612384954e+02 7.2565314601e+02 0.0000000000e+00 0.0000e+00 1.0000e+00
       13  1    1    2    0    0 -8.3590107312e+01 -3.3901567858e+02 +1.0938516271e+03 1.1482292099e+03 0.0000000000e+00 0.0000e+00 -1.0000e+00
<mgrwt>
<rscale>  0 0.72015272E+03</rscale>
<asrwt>0</asrwt>
<pdfrwt beam="1">  1        2 0.27721980E+00 0.72015272E+03</pdfrwt>
<pdfrwt beam="2">  1       -2 0.11069761E-01 0.72015272E+03</pdfrwt>
<totfact> 0.56994121E+02</totfact>
</mgrwt>
<rwgt>
<wgt id='morphing_basis_vector_1'> +2.9329141e-04 </wgt>
<wgt id='morphing_basis_vector_2'> +1.8283578e-04 </wgt>
<wgt id='morphing_basis_vector_3'> +2.5111959e-04 </wgt>
<wgt id='morphing_basis_vector_4'> +1.2369390e-04 </wgt>
<wgt id='morphing_basis_vector_5'> +1.9885184e-04 </wgt>
</rwgt>
</event>
<event>
 4      1 +5.9529000e-06 6.75500300e+02 7.81860800e-03 9.07513400e-02
        2 -1    0    0  501    0 +0.0000000000e+00 +0.0000000000e+00 +4.8373122737e+02 4.8373122737e+02 0.0000000000e+00 0.0000e+00 1.0000e+00
       -2 -1    0    0    0  501 -0.0000000000e+00 -0.0000000000e+00 -2.3582343509e+02 2.3582343509e+02 0.0000000000e+00 0.0000e+00 -1.0000e+00
      -13  1    1    2    0    0 +2.5511028603e+02 +7.5806491161e+01 -9.7568499796e+01 2.8345633578e+02 0.0000000000e+00 0.0000e+00 -1.0000e+00
       13  1    1    2    0    0 -2.5511028603e+02 -7.5806491161e+01 +3.4547629208e+02 4.3609832667e+02 0.0000000000e+00 0.0000e+00 1.0000e+00
<mgrwt>
<rscale>  0 0.67550029E+03</rscale>
<asrwt>0</asrwt>
<pdfrwt beam="1">  1        2 0.74420189E-01 0.67550029E+03</pdfrwt>
<pdfrwt beam="2">  1       -2 0.36280529E-01 0.67550029E+03</pdfrwt>
<totfact> 0.54389946E+02</totfact>
</mgrwt>
<rwgt>
<wgt id='morphing_basis_vector_1'> +2.3295787e-04 </wgt>
<wgt id='morphing_basis_vector_2'> +1.3685772e-04 </wgt>
<wgt id='morphing_basis_vector_3'> +1.9516028e-04 </wgt>
<wgt id='morphing_basis_vector_4'> +9.4536029e-05 </wgt>
<wgt id='morphing_basis_vector_5'> +1.4654612e-04 </wgt>
</rwgt>
</event>
<event>
 4      1 +5.9529000e-06 6.99257000e+02 7.81860800e-03 9.03926300e-02
        2 -1    0    0  501    0 +0.0000000000e+00 +0.0000000000e+00 +1.4107514322e+02 1.4107514322e+02 0.0000000000e+00 0.0000e+00 -1.0000e+00
       -2 -1    0    0    0  501 -0.0000000000e+00 -0.0000000000e+00 -8.6648921823e+02 8.6648921823e+02 0.0000000000e+00 0.0000e+00 1.0000e+00
      -13  1    1    2    0    0 -2.1763667682e+02 -1.4729948914e+02 -6.9498291824e+02 7.4301017438e+02 0.0000000000e+00 0.0000e+00 1.0000e+00
       13  1    1    2    0    0 +2.1763667682e+02 +1.4729948914e+02 -3.0431156773e+01 2.6455418707e+02 0.0000000000e+00 0.0000e+00 -1.0000e+00
<mgrwt>
<rscale>  0 0.69925701E+03</rscale>
<asrwt>0</asrwt>
<pdfrwt beam="1">  1        2 0.21703869E-01 0.69925701E+03</pdfrwt>
<pdfrwt beam="2">  1       -2 0.13330603E+00 0.69925701E+03</pdfrwt>
<totfact> 0.13043319E+02</totfact>
</mgrwt>
<rwgt>
<wgt id='morphing_basis_vector_1'> +2.6191054e-04 </wgt>
<wgt id='morphing_basis_vector_2'> +1.5460390e-04 </wgt>
<wgt id='morphing_basis_vector_3'> +2.2286882e-04 </wgt>
<wgt id='morphing_basis_vector_4'> +1.1126356e-04 </wgt>
<wgt id='morphing_basis_vector_5'> +1.7302232e-04 </wgt>
</rwgt>
</event>
<event>
 4      1 +5.9529000e-06 7.08119800e+02 7.81860800e-03 9.02625900e-02
        2 -1    0    0  501    0 +0.0000000000e+00 +0.0000000000e+00 +2.4571096953e+03 2.4571096953e+03 0.0000000000e+00 0.0000e+00 -1.0000e+00
       -2 -1    0    0    0  501 -0.0000000000e+00 -0.0000000000e+00 -5.1018647130e+01 5.1018647130e+01 0.0000000000e+00 0.0000e+00 1.0000e+00
      -13  1    1    2    0    0 +3.0859322583e+01 +3.4795576991e+02 +9.9856405435e+02 1.0579015485e+03 0.0000000000e+00 0.0000e+00 1.0000e+00
       13  1    1    2    0    0 -3.0859322583e+01 -3.4795576991e+02 +1.4075269938e+03 1.4502267939e+03 0.0000000000e+00 0.0000e+00 -1.0000e+00
<mgrwt>
<rscale>  0 0.70811980E+03</rscale>
<asrwt>0</asrwt>
<pdfrwt beam="1">  1        2 0.37801678E+00 0.70811980E+03</pdfrwt>
<pdfrwt beam="2">  1       -2 0.78490246E-02 0.70811980E+03</pdfrwt>
<totfact> 0.42010145E+02</totfact>
</mgrwt>
<rwgt>
<wgt id='morphing_basis_vector_1'> +2.7818131e-04 </wgt>
<wgt id='morphing_basis_vector_2'> +1.7636137e-04 </wgt>
<wgt id='morphing_basis_vector_3'> +2.3571611e-04 </wgt>
<wgt id='morphing_basis_vector_4'> +1.1291912e-04 </wgt>
<wgt id='morphing_basis_vector_5'> +1.8357303e-04 </wgt>
</rwgt>
</event>
<event>
 4      1 +5.9529000e-06 6.66195000e+02 7.81860800e-03 9.08960600e-02
        2 -1    0    0  501    0 +0.0000000000e+00 +0.0000000000e+00 +1.5722641761e+03 1.5722641761e+03 0.0000000000e+00 0.0000e+00 -1.0000e+00
       -2 -1    0    0    0  501 -0.0000000000e+00 -0.0000000000e+00 -7.0569538943e+01 7.0569538943e+01 0.0000000000e+00 0.0000e+00 1.0000e+00
      -13  1    1    2    0    0 -1.2653055433e+02 +3.0386649412e+02 +8.7680948435e+02 9.3655736571e+02 0.0000000000e+00 0.0000e+00 -1.0000e+00
       13  1    1    2    0    0 +1.2653055433e+02 -3.0386649412e+02 +6.2488515281e+02 7.0627634934e+02 0.0000000000e+00 0.0000e+00 1.0000e+00
<mgrwt>
<rscale>  0 0.66619504E+03</rscale>
<asrwt>0</asrwt>
<pdfrwt beam="1">  1        2 0.24188677E+00 0.66619504E+03</pdfrwt>
<pdfrwt beam="2">  1       -2 0.10856853E-01 0.66619504E+03</pdfrwt>
<totfact> 0.78720124E+02</totfact>
</mgrwt>
<rwgt>
<wgt id='morphing_basis_vector_1'> +2.3495009e-04 </wgt>
<wgt id='morphing_basis_vector_2'> +1.6933236e-04 </wgt>
<wgt id='morphing_basis_vector_3'> +1.8818533e-04 </wgt>
<wgt id='morphing_basis_vector_4'> +7.6338727e-05 </wgt>
<wgt id='morphing_basis_vector_5'> +1.3679208e-04 </wgt>
</rwgt>
</event>
<event>
 4      1 +5.9529000e-06 7.05132200e+02 7.81860800e-03 9.03062000e-02
        2 -1    0    0  501    0 +0.0000000000e+00 +0.0000000000e+00 +7.1753362210e+02 7.1753362210e+02 0.0000000000e+00 0.0000e+00 1.0000e+00
       -2 -1    0    0    0  501 -0.0000000000e+00 -0.0000000000e+00 -1.7323627225e+02 1.7323627225e+02 0.0000000000e+00 0.0000e+00 -1.0000e+00
      -13  1    1    2    0    0 -2.0898057661e+01 -3.5073259392e+02 +2.3525850910e+02 4.2284352585e+02 0.0000000000e+00 0.0000e+00 -1.0000e+00
       13  1    1    2    0    0 +2.0898057661e+01 +3.5073259392e+02 +3.0903884075e+02 4.6792636851e+02 0.0000000000e+00 0.0000e+00 1.0000e+00
<mgrwt>
<rscale>  0 0.70513219E+03</rscale>
<asrwt>0</asrwt>
<pdfrwt beam="1">  1        2 0.11038979E+00 0.70513219E+03</pdfrwt>
<pdfrwt beam="2">  1       -2 0.26651735E-01 0.70513219E+03</pdfrwt>
<totfact> 0.59081089E+02</totfact>
</mgrwt>
<rwgt>
<wgt id='morphing_basis_vector_1'> +2.7598949e-04 </wgt>
<wgt id='morphing_basis_vector_2'> +1.7928287e-04 </wgt>
<wgt id='morphing_basis_vector_3'> +2.3252434e-04 </wgt>
<wgt id='morphing_basis_vector_4'> +1.0880168e-04 </wgt>
<wgt id='morphing_basis_vector_5'> +1.7987223e-04 </wgt>
</rwgt>
</event>
<event>
 4      1 +5.9529000e-06 6.23624900e+02 7.81860800e-03 9.15912100e-02
        2 -1    0    0  501    0 +0.0000000000e+00 +0.0000000000e+00 +1.5296691394e+03 1.5296691394e+03 0.0000000000e+00 0.0000e+00 -1.0000e+00
       -2 -1    0    0    0  501 -0.0000000000e+00 -0.0000000000e+00 -6.3560796571e+01 6.3560796571e+01 0.0000000000e+00 0.0000e+00 1.0000e+00
      -13  1    1    2    0    0 +2.8779010708e+02 -4.2844331768e+01 +4.4664184963e+02 5.3305508565e+02 0.0000000000e+00 0.0000e+00 1.0000e+00
       13  1    1    2    0    0 -2.8779010708e+02 +4.2844331768e+01 +1.0194664932e+03 1.0601748503e+03 0.0000000000e+00 0.0000e+00 -1.0000e+00
<mgrwt>
<rscale>  0 0.62362485E+03</rscale>
<asrwt>0</asrwt>
<pdfrwt beam="1">  1        2 0.23533369E+00 0.62362485E+03</pdfrwt>
<pdfrwt beam="2">  1       -2 0.97785852E-02 0.62362485E+03</pdfrwt>
<totfact> 0.98121875E+02</totfact>
</mgrwt>
<rwgt>
<wgt id='morphing_basis_vector_1'> +1.7940994e-04 </wgt>
<wgt id='morphing_basis_vector_2'> +1.0638846e-04 </wgt>
<wgt id='morphing_basis_vector_3'> +1.4400004e-04 </wgt>
<wgt id='morphing_basis_vector_4'> +6.3746541e-05 </wgt>
<wgt id='morphing_basis_vector_5'> +9.8860015e-05 </wgt>
</rwgt>
</event>
<event>
 4      1 +5.9529000e-06 6.63968000e+02 7.81860800e-03 9.09310600e-02
        2 -1    0    0  501    0 +0.0000000000e+00 +0.0000000000e+00 +7.4631411148e+02 7.4631411148e+02 0.0000000000e+00 0.0000e+00 -1.0000e+00
       -2 -1    0    0    0  501 -0.0000000000e+00 -0.0000000000e+00 -1.4767694839e+02 1.4767694839e+02 0.0000000000e+00 0.0000e+00 1.0000e+00
      -13  1    1    2    0    0 +1.4382551164e+02 +1.3723450968e+01 -1.0312705387e+02 1.7750859175e+02 0.0000000000e+00 0.0000e+00 1.0000e+00
       13  1    1    2    0    0 -1.4382551164e+02 -1.3723450968e+01 +7.0176421697e+02 7.1648246812e+02 0.0000000000e+00 0.0000e+00 -1.0000e+00
<mgrwt>
<rscale>  0 0.66396804E+03</rscale>
<asrwt>0</asrwt>
<pdfrwt beam="1">  1        2 0.11481755E+00 0.66396804E+03</pdfrwt>
<pdfrwt beam="2">  1       -2 0.22719531E-01 0.66396804E+03</pdfrwt>
<totfact> 0.73996000E+02</totfact>
</mgrwt>
<rwgt>
<wgt id='morphing_basis_vector_1'> +2.1934508e-04 </wgt>
<wgt id='morphing_basis_vector_2'> +1.2728202e-04 </wgt>
<wgt id='morphing_basis_vector_3'> +1.8258551e-04 </wgt>
<wgt id='morphing_basis_vector_4'> +8.7601982e-05 </wgt>
<wgt id='morphing_basis_vector_5'> +1.3479788e-04 </wgt>
</rwgt>
</event>
<event>
 4      1 +5.9529000e-06 6.97107400e+02 7.81860800e-03 9.04244700e-02
        2 -1    0    0  501    0 +0.0000000000e+00 +0.0000000000e+00 +2.4395847300e+03 2.4395847300e+03 0.0000000000e+00 0.0000e+00 1.0000e+00
       -2 -1    0    0    0  501 -0.0000000000e+00 -0.0000000000e+00 -4.9799325916e+01 4.9799325916e+01 0.0000000000e+00 0.0000e+00 -1.0000e+00
      -13  1    1    2    0    0 -3.4153246093e+02 +6.2550991102e+01 +1.3039478443e+03 1.3493839442e+03 0.0000000000e+00 0.0000e+00 -1.0000e+00
       13  1    1    2    0    0 +3.4153246093e+02 -6.2550991102e+01 +1.0858375598e+03 1.1400001117e+03 0.0000000000e+00 0.0000e+00 1.0000e+00
<mgrwt>
<rscale>  0 0.69710738E+03</rscale>
<asrwt>0</asrwt>
<pdfrwt beam="1">  1        2 0.37532064E+00 0.69710738E+03</pdfrwt>
<pdfrwt beam="2">  1       -2 0.76614366E-02 0.69710738E+03</pdfrwt>
<totfact> 0.44688829E+02</totfact>
</mgrwt>
<rwgt>
<wgt id='morphing_basis_vector_1'> +2.7101682e-04 </wgt>
<wgt id='morphing_basis_vector_2'> +1.8942297e-04 </wgt>
<wgt id='morphing_basis_vector_3'> +2.2427251e-04 </wgt>
<wgt id='morphing_basis_vector_4'> +9.7305360e-05 </wgt>
<wgt id='morphing_basis_vector_5'> +1.7018461e-04 </wgt>
</rwgt>
</event>
<event>
 4      1 +5.9529000e-06 6.41043500e+02 7.81860800e-03 9.12999300e-02
        2 -1    0    0  501    0 +0.0000000000e+00 +0.0000000000e+00 +9.4499920113e+02 9.4499920113e+02 0.0000000000e+00 0.0000e+00 -1.0000e+00
       -2 -1    0    0    0  501 -0.0000000000e+00 -0.0000000000e+00 -1.0871350893e+02 1.0871350893e+02 0.0000000000e+00 0.0000e+00 1.0000e+00
      -13  1    1    2    0    0 +1.5637384088e+02 -1.5413340718e+02 +3.4320929284e+01 2.2223368670e+02 0.0000000000e+00 0.0000e+00 1.0000e+00
       13  1    1    2    0    0 -1.5637384088e+02 +1.5413340718e+02 +8.0196476291e+02 8.3147902335e+02 0.0000000000e+00 0.0000e+00 -1.0000e+00
<mgrwt>
<rscale>  0 0.64104346E+03</rscale>
<asrwt>0</asrwt>
<pdfrwt beam="1">  1        2 0.14538449E+00 0.64104346E+03</pdfrwt>
<pdfrwt beam="2">  1       -2 0.16725156E-01 0.64104346E+03</pdfrwt>
<totfact> 0.90488076E+02</totfact>
</mgrwt>
<rwgt>
<wgt id='morphing_basis_vector_1'> +1.9514959e-04 </wgt>
<wgt id='morphing_basis_vector_2'> +1.1281951e-04 </wgt>
<wgt id='morphing_basis_vector_3'> +1.5971728e-04 </wgt>
<wgt id='morphing_basis_vector_4'> +7.3993145e-05 </wgt>
<wgt id='morphing_basis_vector_5'> +1.1342270e-04 </wgt>
</rwgt>
</event>
<event>
 4      1 +5.9529000e-06 7.02524700e+02 7.81860800e-03 9.03444500e-02
        2 -1    0    0  501    0 +0.0000000000e+00 +0.0000000000e+00 +6.6573726980e+02 6.6573726980e+02 0.0000000000e+00 0.0000e+00 1.0000e+00
       -2 -1    0    0    0  501 -0.0000000000e+00 -0.0000000000e+00 -1.8533622453e+02 1.8533622453e+02 0.0000000000e+00 0.0000e+00 -1.0000e+00
      -13  1    1    2    0    0 +3.3701040541e+02 +6.0567955171e+01 +1.4526781049e+02 3.7195057106e+02 0.0000000000e+00 0.0000e+00 -1.0000e+00
       13  1    1    2    0    0 -3.3701040541e+02 -6.0567955171e+01 +3.3513323478e+02 4.7912292327e+02 0.0000000000e+00 0.0000e+00 1.0000e+00
<mgrwt>
<rscale>  0 0.70252468E+03</rscale>
<asrwt>0</asrwt>
<pdfrwt beam="1">  1        2 0.10242112E+00 0.70252468E+03</pdfrwt>
<pdfrwt beam="2">  1       -2 0.28513266E-01 0.70252468E+03</pdfrwt>
<totfact> 0.57557419E+02</totfact>
</mgrwt>
<rwgt>
<wgt id='morphing_basis_vector_1'> +2.6964725e-04 </wgt>
<wgt id='morphing_basis_vector_2'> +1.6809450e-04 </wgt>
<wgt id='morphing_basis_vector_3'> +2.2816439e-04 </wgt>
<wgt id='morphing_basis_vector_4'> +1.0997798e-04 </wgt>
<wgt id='morphing_basis_vector_5'> +1.7681231e-04 </wgt>
</rwgt>
</event>
<event>
 4      1 +5.9529000e-06 6.40735200e+02 7.81860800e-03 9.13050000e-02
        2 -1    0    0  501    0 +0.0000000000e+00 +0.0000000000e+00 +4.7435979814e+02 4.7435979814e+02 0.0000000000e+00 0.0000e+00 1.0000e+00
       -2 -1    0    0    0  501 -0.0000000000e+00 -0.0000000000e+00 -2.1636616728e+02 2.1636616728e+02 0.0000000000e+00 0.0000e+00 -1.0000e+00
      -13  1    1    2    0    0 -2.9213642138e+02 -5.2310147074e+01 -1.0617071121e+00 2.9678471559e+02 0.0000000000e+00 0.0000e+00 -1.0000e+00
       13  1    1    2    0    0 +2.9213642138e+02 +5.2310147074e+01 +2.5905533798e+02 3.9394124983e+02 0.0000000000e+00 0.0000e+00 1.0000e+00
<mgrwt>
<rscale>  0 0.64073524E+03</rscale>
<asrwt>0</asrwt>
<pdfrwt beam="1">  1        2 0.72978430E-01 0.64073524E+03</pdfrwt>
<pdfrwt beam="2">  1       -2 0.33287103E-01 0.64073524E+03</pdfrwt>
<totfact> 0.65018856E+02</totfact>
</mgrwt>
<rwgt>
<wgt id='morphing_basis_vector_1'> +1.9613884e-04 </wgt>
<wgt id='morphing_basis_vector_2'> +1.1665468e-04 </wgt>
<wgt id='morphing_basis_vector_3'> +1.5963980e-04 </wgt>
<wgt id='morphing_basis_vector_4'> +7.2659020e-05 </wgt>
<wgt id='morphing_basis_vector_5'> +1.1314137e-04 </wgt>
</rwgt>
</event>
<event>
 4      1 +5.9529000e-06 7.39898600e+02 7.81860800e-03 8.98121400e-02
        2 -1    0    0  501    0 +0.0000000000e+00 +0.0000000000e+00 +2.4697270519e+03 2.4697270519e+03 0.0000000000e+00 0.0000e+00 -1.0000e+00
       -2 -1    0    0    0  501 -0.0000000000e+00 -0.0000000000e+00 -5.5416035069e+01 5.5416035069e+01 0.0000000000e+00 0.0000e+00 1.0000e+00
      -13  1    1    2    0    0 -3.4997065623e+02 +5.7389689302e+01 +8.4776327817e+02 9.1895354207e+02 0.0000000000e+00 0.0000e+00 1.0000e+00
       13  1    1    2    0    0 +3.4997065623e+02 -5.7389689302e+01 +1.5665477386e+03 1.6061895449e+03 0.0000000000e+00 0.0000e+00 -1.0000e+00
<mgrwt>
<rscale>  0 0.73989859E+03</rscale>
<asrwt>0</asrwt>
<pdfrwt beam="1">  1        2 0.37995792E+00 0.73989859E+03</pdfrwt>
<pdfrwt beam="2">  1       -2 0.85255458E-02 0.73989859E+03</pdfrwt>
<totfact> 0.36222308E+02</totfact>
</mgrwt>
<rwgt>
<wgt id='morphing_basis_vector_1'> +3.2143616e-04 </wgt>
<wgt id='morphing_basis_vector_2'> +1.9976907e-04 </wgt>
<wgt id='morphing_basis_vector_3'> +2.7874369e-04 </wgt>
<wgt id='morphing_basis_vector_4'> +1.4079896e-04 </wgt>
<wgt id='morphing_basis_vector_5'> +2.2580060e-04 </wgt>
</rwgt>
</event>
<event>
 4      1 +5.9529000e-06 7.11419800e+02 7.81860800e-03 9.02146700e-02
        2 -1    0    0  501    0 +0.0000000000e+00 +0.0000000000e+00 +8.1980764937e+02 8.1980764937e+02 0.0000000000e+00 0.0000e+00 1.0000e+00
       -2 -1    0    0    0  501 -0.0000000000e+00 -0.0000000000e+00 -1.5434050108e+02 1.5434050108e+02 0.0000000000e+00 0.0000e+00 -1.0000e+00
      -13  1    1    2    0    0 +1.7013004169e+02 +3.0023350129e+02 +4.5088403658e+02 5.6778587586e+02 0.0000000000e+00 0.0000e+00 -1.0000e+00
       13  1    1    2    0    0 -1.7013004169e+02 -3.0023350129e+02 +2.1458311172e+02 4.0636227460e+02 0.0000000000e+00 0.0000e+00 1.0000e+00
<mgrwt>
<rscale>  0 0.71141977E+03</rscale>
<asrwt>0</asrwt>
<pdfrwt beam="1">  1        2 0.12612425E+00 0.71141977E+03</pdfrwt>
<pdfrwt beam="2">  1       -2 0.23744693E-01 0.71141977E+03</pdfrwt>
<totfact> 0.60881191E+02</totfact>
</mgrwt>
<rwgt>
<wgt id='morphing_basis_vector_1'> +2.9977586e-04 </wgt>
<wgt id='morphing_basis_vector_2'> +2.3206642e-04 </wgt>
<wgt id='morphing_basis_vector_3'> +2.4654011e-04 </wgt>
<wgt id='morphing_basis_vector_4'> +9.6911014e-05 </wgt>
<wgt id='morphing_basis_vector_5'> +1.8714031e-04 </wgt>
</rwgt>
</event>
<event>
 4      1 +5.9529000e-06 6.63577800e+02 7.81860800e-03 9.09372100e-02
        2 -1    0    0  501    0 +0.0000000000e+00 +0.0000000000e+00 +3.1787197050e+02 3.1787197050e+02 0.0000000000e+00 0.0000e+00 -1.0000e+00
       -2 -1    0    0    0  501 -0.0000000000e+00 -0.0000000000e+00 -3.4631509466e+02 3.4631509466e+02 0.0000000000e+00 0.0000e+00 1.0000e+00
      -13  1    1    2    0    0 -1.1581799950e+02 +1.2549667437e+02 -2.9894829006e+02 3.4428666024e+02 0.0000000000e+00 0.0000e+00 1.0000e+00
       13  1    1    2    0    0 +1.1581799950e+02 -1.2549667437e+02 +2.7050516591e+02 3.1990040492e+02 0.0000000000e+00 0.0000e+00 -1.0000e+00
<mgrwt>
<rscale>  0 0.66357776E+03</rscale>
<asrwt>0</asrwt>
<pdfrwt beam="1">  1        2 0.48903380E-01 0.66357776E+03</pdfrwt>
<pdfrwt beam="2">  1       -2 0.53279245E-01 0.66357776E+03</pdfrwt>
<totfact> 0.42115128E+02</totfact>
</mgrwt>
<rwgt>
<wgt id='morphing_basis_vector_1'> +2.1893729e-04 </wgt>
<wgt id='morphing_basis_vector_2'> +1.2709564e-04 </wgt>
<wgt id='morphing_basis_vector_3'> +1.8218176e-04 </wgt>
<wgt id='morphing_basis_vector_4'> +8.7333827e-05 </wgt>
<wgt id='morphing_basis_vector_5'> +1.3441160e-04 </wgt>
</rwgt>
</event>
<event>
 4      1 +5.9529000e-06 6.61871800e+02 7.81860800e-03 9.09641400e-02
        2 -1    0    0  501    0 +0.0000000000e+00 +0.0000000000e+00 +7.1938201943e+02 7.1938201943e+02 0.0000000000e+00 0.0000e+00 1.0000e+00
       -2 -1    0    0    0  501 -0.0000000000e+00 -0.0000000000e+00 -1.5223977787e+02 1.5223977787e+02 0.0000000000e+00 0.0000e+00 -1.0000e+00
      -13  1    1    2    0    0 -2.9321745642e+02 -1.5275590682e+02 +3.0255076987e+02 4.4816047591e+02 0.0000000000e+00 0.0000e+00 -1.0000e+00
       13  1    1    2    0    0 +2.9321745642e+02 +1.5275590682e+02 +2.6459147169e+02 4.2346132139e+02 0.0000000000e+00 0.0000e+00 1.0000e+00
<mgrwt>
<rscale>  0 0.66187177E+03</rscale>
<asrwt>0</asrwt>
<pdfrwt beam="1">  1        2 0.11067416E+00 0.66187177E+03</pdfrwt>
<pdfrwt beam="2">  1       -2 0.23421505E-01 0.66187177E+03</pdfrwt>
<totfact> 0.73559968E+02</totfact>
</mgrwt>
<rwgt>
<wgt id='morphing_basis_vector_1'> +2.2575084e-04 </wgt>
<wgt id='morphing_basis_vector_2'> +1.5282360e-04 </wgt>
<wgt id='morphing_basis_vector_3'> +1.8243320e-04 </wgt>
<wgt id='morphing_basis_vector_4'> +7.7978408e-05 </wgt>
<wgt id='morphing_basis_vector_5'> +1.3259838e-04 </wgt>
</rwgt>
</event>
<event>
 4      1 +5.9529000e-06 7.16120700e+02 7.81860800e-03 9.01468800e-02
        2 -1    0    0  501    0 +0.0000000000e+00 +0.0000000000e+00 +4.2573291677e+02 4.2573291677e+02 0.0000000000e+00 0.0000e+00 -1.0000e+00
       -2 -1    0    0    0  501 -0.0000000000e+00 -0.0000000000e+00 -3.0114473858e+02 3.0114473858e+02 0.0000000000e+00 0.0000e+00 1.0000e+00
      -13  1    1    2    0    0 +9.0567469590e+01 -1.1686370329e+02 -2.6871429077e+02 3.0670337748e+02 0.0000000000e+00 0.0000e+00 1.0000e+00
       13  1    1    2    0    0 -9.0567469590e+01 +1.1686370329e+02 +3.9330246896e+02 4.2017427787e+02 0.0000000000e+00 0.0000e+00 -1.0000e+00
<mgrwt>
<rscale>  0 0.71612074E+03</rscale>
<asrwt>0</asrwt>
<pdfrwt beam="1">  1        2 0.65497372E-01 0.71612074E+03</pdfrwt>
<pdfrwt beam="2">  1       -2 0.46329960E-01 0.71612074E+03</pdfrwt>
<totfact> 0.39742367E+02</totfact>
</mgrwt>
<rwgt>
<wgt id='morphing_basis_vector_1'> +2.8381133e-04 </wgt>
<wgt id='morphing_basis_vector_2'> +1.6726681e-04 </wgt>
<wgt id='morphing_basis_vector_3'> +2.4417440e-04 </wgt>
<wgt id='morphing_basis_vector_4'> +1.2473647e-04 </wgt>
<wgt id='morphing_basis_vector_5'> +1.9377308e-04 </wgt>
</rwgt>
</event>
<event>
 4      1 +5.9529000e-06 7.27322900e+02 7.81860800e-03 8.99874800e-02
        2 -1    0    0  501    0 +0.0000000000e+00 +0.0000000000e+00 +2.1459275575e+03 2.1459275575e+03 0.0000000000e+00 0.0000e+00 -1.0000e+00
       -2 -1    0    0    0  501 -0.0000000000e+00 -0.0000000000e+00 -6.1628203734e+01 6.1628203734e+01 0.0000000000e+00 0.0000e+00 1.0000e+00
      -13  1    1    2    0    0 +3.5111256298e+02 +2.2253415127e+01 +7.6274141057e+02 8.3997006243e+02 0.0000000000e+00 0.0000e+00 1.0000e+00
       13  1    1    2    0    0 -3.5111256298e+02 -2.2253415127e+01 +1.3215579432e+03 1.3675856988e+03 0.0000000000e+00 0.0000e+00 -1.0000e+00
<mgrwt>
<rscale>  0 0.72732293E+03</rscale>
<asrwt>0</asrwt>
<pdfrwt beam="1">  1        2 0.33014264E+00 0.72732293E+03</pdfrwt>
<pdfrwt beam="2">  1       -2 0.94812638E-02 0.72732293E+03</pdfrwt>
<totfact> 0.46955745E+02</totfact>
</mgrwt>
<rwgt>
<wgt id='morphing_basis_vector_1'> +3.0336345e-04 </wgt>
<wgt id='morphing_basis_vector_2'> +1.8911412e-04 </wgt>
<wgt id='morphing_basis_vector_3'> +2.6093891e-04 </wgt>
<wgt id='morphing_basis_vector_4'> +1.2961950e-04 </wgt>
<wgt id='morphing_basis_vector_5'> +2.0835230e-04 </wgt>
</rwgt>
</event>
<event>
 4      1 +5.9529000e-06 7.02902400e+02 7.81860800e-03 9.03389000e-02
        2 -1    0    0  501    0 +0.0000000000e+00 +0.0000000000e+00 +3.8603379873e+02 3.8603379873e+02 0.0000000000e+00 0.0000e+00 -1.0000e+00
       -2 -1    0    0    0  501 -0.0000000000e+00 -0.0000000000e+00 -3.1996669195e+02 3.1996669195e+02 0.0000000000e+00 0.0000e+00 1.0000e+00
      -13  1    1    2    0    0 +1.2100989635e+02 +2.5924432374e+02 -1.7199095369e+02 3.3381417369e+02 0.0000000000e+00 0.0000e+00 1.0000e+00
       13  1    1    2    0    0 -1.2100989635e+02 -2.5924432374e+02 +2.3805806047e+02 3.7218631699e+02 0.0000000000e+00 0.0000e+00 -1.0000e+00
<mgrwt>
<rscale>  0 0.70290243E+03</rscale>
<asrwt>0</asrwt>
<pdfrwt beam="1">  1        2 0.59389815E-01 0.70290243E+03</pdfrwt>
<pdfrwt beam="2">  1       -2 0.49225645E-01 0.70290243E+03</pdfrwt>
<totfact> 0.39491109E+02</totfact>
</mgrwt>
<rwgt>
<wgt id='morphing_basis_vector_1'> +2.6690193e-04 </wgt>
<wgt id='morphing_basis_vector_2'> +1.5842831e-04 </wgt>
<wgt id='morphing_basis_vector_3'> +2.2748448e-04 </wgt>
<wgt id='morphing_basis_vector_4'> +1.1368398e-04 </wgt>
<wgt id='morphing_basis_vector_5'> +1.7735640e-04 </wgt>
</rwgt>
</event>
<event>
 4      1 +5.9529000e-06 7.24785900e+02 7.81860800e-03 9.00233200e-02
        2 -1    0    0  501    0 +0.0000000000e+00 +0.0000000000e+00 +1.9190103668e+03 1.9190103668e+03 0.0000000000e+00 0.0000e+00 -1.0000e+00
       -2 -1    0    0    0  501 -0.0000000000e+00 -0.0000000000e+00 -6.8435607559e+01 6.8435607559e+01 0.0000000000e+00 0.0000e+00 1.0000e+00
      -13  1    1    2    0    0 +3.5305566017e+02 +3.1982952527e+00 +7.0133680648e+02 7.8519541797e+02 0.0000000000e+00 0.0000e+00 1.0000e+00
       13  1    1    2    0    0 -3.5305566017e+02 -3.1982952527e+00 +1.1492379527e+03 1.2022505564e+03 0.0000000000e+00 0.0000e+00 -1.0000e+00
<mgrwt>
<rscale>  0 0.72478587E+03</rscale>
<asrwt>0</asrwt>
<pdfrwt beam="1">  1        2 0.29523232E+00 0.72478587E+03</pdfrwt>
<pdfrwt beam="2">  1       -2 0.10528556E-01 0.72478587E+03</pdfrwt>
<totfact> 0.53185090E+02</totfact>
</mgrwt>
<rwgt>
<wgt id='morphing_basis_vector_1'> +3.0018630e-04 </wgt>
<wgt id='morphing_basis_vector_2'> +1.8815784e-04 </wgt>
<wgt id='morphing_basis_vector_3'> +2.5760591e-04 </wgt>
<wgt id='morphing_basis_vector_4'> +1.2703644e-04 </wgt>
<wgt id='morphing_basis_vector_5'> +2.0494017e-04 </wgt>
</rwgt>
</event>
<event>
 4      1 +5.9529000e-06 6.81673600e+02 7.81860800e-03 9.06566600e-02
        2 -1    0    0  501    0 +0.0000000000e+00 +0.0000000000e+00 +2.4770287677e+03 2.4770287677e+03 0.0000000000e+00 0.0000e+00 -1.0000e+00
       -2 -1    0    0    0  501 -0.0000000000e+00 -0.0000000000e+00 -4.6898816058e+01 4.6898816058e+01 0.0000000000e+00 0.0000e+00 1.0000e+00
      -13  1    1    2    0    0 +1.8361766712e+02 +2.6151211086e+02 +1.6541826011e+03 1.6847623303e+03 0.0000000000e+00 0.0000e+00 -1.0000e+00
       13  1    1    2    0    0 -1.8361766712e+02 -2.6151211086e+02 +7.7594735055e+02 8.3916525347e+02 0.0000000000e+00 0.0000e+00 1.0000e+00
<mgrwt>
<rscale>  0 0.68167358E+03</rscale>
<asrwt>0</asrwt>
<pdfrwt beam="1">  1        2 0.38108125E+00 0.68167358E+03</pdfrwt>
<pdfrwt beam="2">  1       -2 0.72152044E-02 0.68167358E+03</pdfrwt>
<totfact> 0.46703925E+02</totfact>
</mgrwt>
<rwgt>
<wgt id='morphing_basis_vector_1'> +2.6676708e-04 </wgt>
<wgt id='morphing_basis_vector_2'> +2.2322036e-04 </wgt>
<wgt id='morphing_basis_vector_3'> +2.0992000e-04 </wgt>
<wgt id='morphing_basis_vector_4'> +7.1998499e-05 </wgt>
<wgt id='morphing_basis_vector_5'> +1.5255081e-04 </wgt>
</rwgt>
</event>
<event>
 4      1 +5.9529000e-06 6.29862700e+02 7.81860800e-03 9.14857600e-02
        2 -1    0    0  501    0 +0.0000000000e+00 +0.0000000000e+00 +2.1348202924e+02 2.1348202924e+02 0.0000000000e+00 0.0000e+00 1.0000e+00
       -2 -1    0    0    0  501 -0.0000000000e+00 -0.0000000000e+00 -4.6459066604e+02 4.6459066604e+02 0.0000000000e+00 0.0000e+00 -1.0000e+00
      -13  1    1    2    0    0 +3.0323620817e+02 -7.7270377138e+01 -1.6375025672e+02 3.5318133544e+02 0.0000000000e+00 0.0000e+00 1.0000e+00
       13  1    1    2    0    0 -3.0323620817e+02 +7.7270377138e+01 -8.7358380085e+01 3.2489135984e+02 0.0000000000e+00 0.0000e+00 -1.0000e+00
<mgrwt>
<rscale>  0 0.62986271E+03</rscale>
<asrwt>0</asrwt>
<pdfrwt beam="1">  1        2 0.32843389E-01 0.62986271E+03</pdfrwt>
<pdfrwt beam="2">  1       -2 0.71475487E-01 0.62986271E+03</pdfrwt>
<totfact> 0.36127674E+02</totfact>
</mgrwt>
<rwgt>
<wgt id='morphing_basis_vector_1'> +1.8805394e-04 </wgt>
<wgt id='morphing_basis_vector_2'> +1.1834996e-04 </wgt>
<wgt id='morphing_basis_vector_3'> +1.4989968e-04 </wgt>
<wgt id='morphing_basis_vector_4'> +6.4581517e-05 </wgt>
<wgt id='morphing_basis_vector_5'> +1.0389654e-04 </wgt>
</rwgt>
</event>
<event>
 4      1 +5.9529000e-06 6.25388400e+02 7.81860800e-03 9.15612600e-02
        2 -1    0    0  501    0 +0.0000000000e+00 +0.0000000000e+00 +7.9848071522e+02 7.9848071522e+02 0.0000000000e+00 0.0000e+00 1.0000e+00
       -2 -1    0    0    0  501 -0.0000000000e+00 -0.0000000000e+00 -1.2245463567e+02 1.2245463567e+02 0.0000000000e+00 0.0000e+00 -1.0000e+00
      -13  1    1    2    0    0 +1.1968391568e+02 +1.5715779882e+02 +6.9495794246e+02 7.2248830799e+02 0.0000000000e+00 0.0000e+00 1.0000e+00
       13  1    1    2    0    0 -1.1968391568e+02 -1.5715779882e+02 -1.8931862908e+01 1.9844704290e+02 0.0000000000e+00 0.0000e+00 -1.0000e+00
<mgrwt>
<rscale>  0 0.62538841E+03</rscale>
<asrwt>0</asrwt>
<pdfrwt beam="1">  1        2 0.12284318E+00 0.62538841E+03</pdfrwt>
<pdfrwt beam="2">  1       -2 0.18839175E-01 0.62538841E+03</pdfrwt>
<totfact> 0.93004186E+02</totfact>
</mgrwt>
<rwgt>
<wgt id='morphing_basis_vector_1'> +2.3593075e-04 </wgt>
<wgt id='morphing_basis_vector_2'> +2.7726854e-04 </wgt>
<wgt id='morphing_basis_vector_3'> +1.5169350e-04 </wgt>
<wgt id='morphing_basis_vector_4'> +1.8027923e-05 </wgt>
<wgt id='morphing_basis_vector_5'> +1.0006770e-04 </wgt>
</rwgt>
</event>
<event>
 4      1 +5.9529000e-06 7.47918700e+02 7.81860800e-03 8.97022400e-02
        2 -1    0    0  501    0 +0.0000000000e+00 +0.0000000000e+00 +1.6087875732e+03 1.6087875732e+03 0.0000000000e+00 0.0000e+00 -1.0000e+00
       -2 -1    0    0    0  501 -0.0000000000e+00 -0.0000000000e+00 -8.6926074921e+01 8.6926074921e+01 0.0000000000e+00 0.0000e+00 1.0000e+00
      -13  1    1    2    0    0 -1.4891574685e+02 +1.8612699294e+02 +1.0764028214e+02 2.6154461856e+02 0.0000000000e+00 0.0000e+00 1.0000e+00
       13  1    1    2    0    0 +1.4891574685e+02 -1.8612699294e+02 +1.4142212161e+03 1.4341690296e+03 0.0000000000e+00 0.0000e+00 -1.0000e+00
<mgrwt>
<rscale>  0 0.74791868E+03</rscale>
<asrwt>0</asrwt>
<pdfrwt beam="1">  1        2 0.24750576E+00 0.74791868E+03</pdfrwt>
<pdfrwt beam="2">  1       -2 0.13373243E-01 0.74791868E+03</pdfrwt>
<totfact> 0.53710846E+02</totfact>
</mgrwt>
<rwgt>
<wgt id='morphing_basis_vector_1'> +3.3011575e-04 </wgt>
<wgt id='morphing_basis_vector_2'> +1.9672374e-04 </wgt>
<wgt id='morphing_basis_vector_3'> +2.8899679e-04 </wgt>
<wgt id='morphing_basis_vector_4'> +1.5209921e-04 </wgt>
<wgt id='morphing_basis_vector_5'> +2.3759337e-04 </wgt>
</rwgt>
</event>
<event>
 4      1 +5.9529000e-06 6.90432000e+02 7.81860800e-03 9.05241200e-02
        2 -1    0    0  501    0 +0.0000000000e+00 +0.0000000000e+00 +1.0635952841e+03 1.0635952841e+03 0.0000000000e+00 0.0000e+00 -1.0000e+00
       -2 -1    0    0    0  501 -0.0000000000e+00 -0.0000000000e+00 -1.1204834283e+02 1.1204834283e+02 0.0000000000e+00 0.0000e+00 1.0000e+00
      -13  1    1    2    0    0 -1.5281863381e+02 +1.4826210784e+02 +1.3075716422e+01 2.1332173311e+02 0.0000000000e+00 0.0000e+00 1.0000e+00
       13  1    1    2    0    0 +1.5281863381e+02 -1.4826210784e+02 +9.3847122484e+02 9.6232189381e+02 0.0000000000e+00 0.0000e+00 -1.0000e+00
<mgrwt>
<rscale>  0 0.69043201E+03</rscale>
<asrwt>0</asrwt>
<pdfrwt beam="1">  1        2 0.16363004E+00 0.69043201E+03</pdfrwt>
<pdfrwt beam="2">  1       -2 0.17238207E-01 0.69043201E+03</pdfrwt>
<totfact> 0.72683395E+02</totfact>
</mgrwt>
<rwgt>
<wgt id='morphing_basis_vector_1'> +2.5052400e-04 </wgt>
<wgt id='morphing_basis_vector_2'> +1.4683403e-04 </wgt>
<wgt id='morphing_basis_vector_3'> +2.1214285e-04 </wgt>
<wgt id='morphing_basis_vector_4'> +1.0514227e-04 </wgt>
<wgt id='morphing_basis_vector_5'> +1.6283017e-04 </wgt>
</rwgt>
</event>
<event>
 4      1 +5.9529000e-06 7.32919000e+02 7.81860800e-03 8.99089900e-02
        2 -1    0    0  501    0 +0.0000000000e+00 +0.0000000000e+00 +3.7430513586e+02 3.7430513586e+02 0.0000000000e+00 0.0000e+00 1.0000e+00
       -2 -1    0    0    0  501 -0.0000000000e+00 -0.0000000000e+00 -3.5877833138e+02 3.5877833138e+02 0.0000000000e+00 0.0000e+00 -1.0000e+00
      -13  1    1    2    0    0 -6.6681413208e+01 +1.5854501314e+01 -3.5231014309e+02 3.5891532846e+02 0.0000000000e+00 0.0000e+00 -1.0000e+00
       13  1    1    2    0    0 +6.6681413208e+01 -1.5854501314e+01 +3.6783694757e+02 3.7416813878e+02 0.0000000000e+00 0.0000e+00 1.0000e+00
<mgrwt>
<rscale>  0 0.73291902E+03</rscale>
<asrwt>0</asrwt>
<pdfrwt beam="1">  1        2 0.57585406E-01 0.73291902E+03</pdfrwt>
<pdfrwt beam="2">  1       -2 0.55196666E-01 0.73291902E+03</pdfrwt>
<totfact> 0.32580417E+02</totfact>
</mgrwt>
<rwgt>
<wgt id='morphing_basis_vector_1'> +3.0746728e-04 </wgt>
<wgt id='morphing_basis_vector_2'> +1.8199792e-04 </wgt>
<wgt id='morphing_basis_vector_3'> +2.6707351e-04 </wgt>
<wgt id='morphing_basis_vector_4'> +1.3883549e-04 </wgt>
<wgt id='morphing_basis_vector_5'> +2.1613341e-04 </wgt>
</rwgt>
</event>
<event>
 4      1 +5.9529000e-06 6.98764600e+02 7.81860800e-03 9.03999100e-02
        2 -1    0    0  501    0 +0.0000000000e+00 +0.0000000000e+00 +8.6364600853e+02 8.6364600853e+02 0.0000000000e+00 0.0000e+00 -1.0000e+00
       -2 -1    0    0    0  501 -0.0000000000e+00 -0.0000000000e+00 -1.4134031116e+02 1.4134031116e+02 0.0000000000e+00 0.0000e+00 1.0000e+00
      -13  1    1    2    0    0 -1.9022179719e+02 -2.1520505365e+02 +7.5054907147e+01 2.9686829796e+02 0.0000000000e+00 0.0000e+00 1.0000e+00
       13  1    1    2    0    0 +1.9022179719e+02 +2.1520505365e+02 +6.4725079022e+02 7.0811802172e+02 0.0000000000e+00 0.0000e+00 -1.0000e+00
<mgrwt>
<rscale>  0 0.69876461E+03</rscale>
<asrwt>0</asrwt>
<pdfrwt beam="1">  1        2 0.13286861E+00 0.69876461E+03</pdfrwt>
<pdfrwt beam="2">  1       -2 0.21744664E-01 0.69876461E+03</pdfrwt>
<totfact> 0.66020029E+02</totfact>
</mgrwt>
<rwgt>
<wgt id='morphing_basis_vector_1'> +2.6160847e-04 </wgt>
<wgt id='morphing_basis_vector_2'> +1.5522217e-04 </wgt>
<wgt id='morphing_basis_vector_3'> +2.2237783e-04 </wgt>
<wgt id='morphing_basis_vector_4'> +1.1055511e-04 </wgt>
<wgt id='morphing_basis_vector_5'> +1.7243283e-04 </wgt>
</rwgt>
</event>
<event>
 4      1 +5.9529000e-06 7.44428300e+02 7.81860800e-03 8.97498900e-02
        2 -1    0    0  501    0 +0.0000000000e+00 +0.0000000000e+00 +8.6938011867e+02 8.6938011867e+02 0.0000000000e+00 0.0000e+00 1.0000e+00
       -2 -1    0    0    0  501 -0.0000000000e+00 -0.0000000000e+00 -1.5935881952e+02 1.5935881952e+02 0.0000000000e+00 0.0000e+00 -1.0000e+00
      -13  1    1    2    0    0 +3.7277097461e+01 -2.9144415438e+02 +3.9236751700e+01 2.9642671910e+02 0.0000000000e+00 0.0000e+00 -1.0000e+00
       13  1    1    2    0    0 -3.7277097461e+01 +2.9144415438e+02 +6.7078454745e+02 7.3231221908e+02 0.0000000000e+00 0.0000e+00 1.0000e+00
<mgrwt>
<rscale>  0 0.74442834E+03</rscale>
<asrwt>0</asrwt>
<pdfrwt beam="1">  1        2 0.13375078E+00 0.74442834E+03</pdfrwt>
<pdfrwt beam="2">  1       -2 0.24516742E-01 0.74442834E+03</pdfrwt>
<totfact> 0.53325771E+02</totfact>
</mgrwt>
<rwgt>
<wgt id='morphing_basis_vector_1'> +3.2528344e-04 </wgt>
<wgt id='morphing_basis_vector_2'> +1.9491183e-04 </wgt>
<wgt id='morphing_basis_vector_3'> +2.8403268e-04 </wgt>
<wgt id='morphing_basis_vector_4'> +1.4829925e-04 </wgt>
<wgt id='morphing_basis_vector_5'> +2.3244801e-04 </wgt>
</rwgt>
</event>
<event>
 4      1 +5.9529000e-06 6.36710800e+02 7.81860800e-03 9.13714700e-02
        2 -1    0    0  501    0 +0.0000000000e+00 +0.0000000000e+00 +1.6750283449e+03 1.6750283449e+03 0.0000000000e+00 0.0000e+00 -1.0000e+00
       -2 -1    0    0    0  501 -0.0000000000e+00 -0.0000000000e+00 -6.0506541005e+01 6.0506541005e+01 0.0000000000e+00 0.0000e+00 1.0000e+00
      -13  1    1    2    0    0 -2.9487891085e+02 -5.9236672027e+01 +5.2284262344e+02 6.0318070614e+02 0.0000000000e+00 0.0000e+00 1.0000e+00
       13  1    1    2    0    0 +2.9487891085e+02 +5.9236672027e+01 +1.0916791804e+03 1.1323541797e+03 0.0000000000e+00 0.0000e+00 -1.0000e+00
<mgrwt>
<rscale>  0 0.63671083E+03</rscale>
<asrwt>0</asrwt>
<pdfrwt beam="1">  1        2 0.25769663E+00 0.63671083E+03</pdfrwt>
<pdfrwt beam="2">  1       -2 0.93086999E-02 0.63671083E+03</pdfrwt>
<totfact> 0.88222822E+02</totfact>
</mgrwt>
<rwgt>
<wgt id='morphing_basis_vector_1'> +1.9242239e-04 </wgt>
<wgt id='morphing_basis_vector_2'> +1.1518028e-04 </wgt>
<wgt id='morphing_basis_vector_3'> +1.5589770e-04 </wgt>
<wgt id='morphing_basis_vector_4'> +7.0197429e-05 </wgt>
<wgt id='morphing_basis_vector_5'> +1.0965781e-04 </wgt>
</rwgt>
</event>
<event>
 4      1 +5.9529000e-06 6.48795000e+02 7.81860800e-03 9.11734200e-02
        2 -1    0    0  501    0 +0.0000000000e+00 +0.0000000000e+00 +3.8854924841e+02 3.8854924841e+02 0.0000000000e+00 0.0000e+00 -1.0000e+00
       -2 -1    0    0    0  501 -0.0000000000e+00 -0.0000000000e+00 -2.7083758448e+02 2.7083758448e+02 0.0000000000e+00 0.0000e+00 1.0000e+00
      -13  1    1    2    0    0 +2.6556827357e+02 +8.4172221410e+01 -1.1005692420e+02 2.9953964237e+02 0.0000000000e+00 0.0000e+00 1.0000e+00
       13  1    1    2    0    0 -2.6556827357e+02 -8.4172221410e+01 +2.2776858813e+02 3.5984719052e+02 0.0000000000e+00 0.0000e+00 -1.0000e+00
<mgrwt>
<rscale>  0 0.64879501E+03</rscale>
<asrwt>0</asrwt>
<pdfrwt beam="1">  1        2 0.59776807E-01 0.64879501E+03</pdfrwt>
<pdfrwt beam="2">  1       -2 0.41667321E-01 0.64879501E+03</pdfrwt>
<totfact> 0.53982692E+02</totfact>
</mgrwt>
<rwgt>
<wgt id='morphing_basis_vector_1'> +2.0374104e-04 </wgt>
<wgt id='morphing_basis_vector_2'> +1.1959976e-04 </wgt>
<wgt id='morphing_basis_vector_3'> +1.6731326e-04 </wgt>
<wgt id='morphing_basis_vector_4'> +7.7800314e-05 </wgt>
<wgt id='morphing_basis_vector_5'> +1.2035334e-04 </wgt>
</rwgt>
</event>
<event>
 4      1 +5.9529000e-06 7.06942100e+02 7.81860800e-03 9.02797500e-02
        2 -1    0    0  501    0 +0.0000000000e+00 +0.0000000000e+00 +7.5883984365e+02 7.5883984365e+02 0.0000000000e+00 0.0000e+00 -1.0000e+00
       -2 -1    0    0    0  501 -0.0000000000e+00 -0.0000000000e+00 -1.6464840470e+02 1.6464840470e+02 0.0000000000e+00 0.0000e+00 1.0000e+00
      -13  1    1    2    0    0 -2.4778785118e+02 +1.4217262503e+02 +2.5175582520e+01 2.8678508409e+02 0.0000000000e+00 0.0000e+00 1.0000e+00
       13  1    1    2    0    0 +2.4778785118e+02 -1.4217262503e+02 +5.6901585644e+02 6.3670316426e+02 0.0000000000e+00 0.0000e+00 -1.0000e+00
<mgrwt>
<rscale>  0 0.70694206E+03</rscale>
<asrwt>0</asrwt>
<pdfrwt beam="1">  1        2 0.11674459E+00 0.70694206E+03</pdfrwt>
<pdfrwt beam="2">  1       -2 0.25330524E-01 0.70694206E+03</pdfrwt>
<totfact> 0.60155137E+02</totfact>
</mgrwt>
<rwgt>
<wgt id='morphing_basis_vector_1'> +2.7216599e-04 </wgt>
<wgt id='morphing_basis_vector_2'> +1.6165448e-04 </wgt>
<wgt id='morphing_basis_vector_3'> +2.3256124e-04 </wgt>
<wgt id='morphing_basis_vector_4'> +1.1678490e-04 </wgt>
<wgt id='morphing_basis_vector_5'> +1.8225830e-04 </wgt>
</rwgt>
</event>
<event>
 4      1 +5.9529000e-06 7.29636800e+02 7.81860800e-03 8.99549400e-02
        2 -1    0    0  501    0 +0.0000000000e+00 +0.0000000000e+00 +1.3709717364e+03 1.3709717364e+03 0.0000000000e+00 0.0000e+00 1.0000e+00
       -2 -1    0    0    0  501 -0.0000000000e+00 -0.0000000000e+00 -9.7078927752e+01 9.7078927752e+01 0.0000000000e+00 0.0000e+00 -1.0000e+00
      -13  1    1    2    0    0 -2.9488887396e+02 -9.3635908703e+01 +2.4801881591e+02 3.9653557776e+02 0.0000000000e+00 0.0000e+00 -1.0000e+00
       13  1    1    2    0    0 +2.9488887396e+02 +9.3635908703e+01 +1.0258739927e+03 1.0715150864e+03 0.0000000000e+00 0.0000e+00 1.0000e+00
<mgrwt>
<rscale>  0 0.72963680E+03</rscale>
<asrwt>0</asrwt>
<pdfrwt beam="1">  1        2 0.21091871E+00 0.72963680E+03</pdfrwt>
<pdfrwt beam="2">  1       -2 0.14935221E-01 0.72963680E+03</pdfrwt>
<totfact> 0.60913483E+02</totfact>
</mgrwt>
<rwgt>
<wgt id='morphing_basis_vector_1'> +3.0381334e-04 </wgt>
<wgt id='morphing_basis_vector_2'> +1.8238380e-04 </wgt>
<wgt id='morphing_basis_vector_3'> +2.6294109e-04 </wgt>
<wgt id='morphing_basis_vector_4'> +1.3477722e-04 </wgt>
<wgt id='morphing_basis_vector_5'> +2.1158822e-04 </wgt>
</rwgt>
</event>
<event>
 4      1 +5.9529000e-06 6.33484600e+02 7.81860800e-03 9.14251200e-02
        2 -1    0    0  501    0 +0.0000000000e+00 +0.0000000000e+00 +1.2578316493e+03 1.2578316493e+03 0.0000000000e+00 0.0000e+00 -1.0000e+00
       -2 -1    0    0    0  501 -0.0000000000e+00 -0.0000000000e+00 -7.9760819498e+01 7.9760819498e+01 0.0000000000e+00 0.0000e+00 1.0000e+00
      -13  1    1    2    0    0 +1.7304388572e+02 -1.3205505325e+02 +1.0319698528e+02 2.4089902707e+02 0.0000000000e+00 0.0000e+00 1.0000e+00
       13  1    1    2    0    0 -1.7304388572e+02 +1.3205505325e+02 +1.0748738445e+03 1.0966934417e+03 0.0000000000e+00 0.0000e+00 -1.0000e+00
<mgrwt>
<rscale>  0 0.63348460E+03</rscale>
<asrwt>0</asrwt>
<pdfrwt beam="1">  1        2 0.19351255E+00 0.63348460E+03</pdfrwt>
<pdfrwt beam="2">  1       -2 0.12270896E-01 0.63348460E+03</pdfrwt>
<totfact> 0.97097244E+02</totfact>
</mgrwt>
<rwgt>
<wgt id='morphing_basis_vector_1'> +1.8760766e-04 </wgt>
<wgt id='morphing_basis_vector_2'> +1.0819883e-04 </wgt>
<wgt id='morphing_basis_vector_3'> +1.5267805e-04 </wgt>
<wgt id='morphing_basis_vector_4'> +6.9909962e-05 </wgt>
<wgt id='morphing_basis_vector_5'> +1.0693267e-04 </wgt>
</rwgt>
</event>
<event>
 4      1 +5.9529000e-06 6.73898400e+02 7.81860800e-03 9.07760800e-02
        2 -1    0    0  501    0 +0.0000000000e+00 +0.0000000000e+00 +1.5228570438e+03 1.5228570438e+03 0.0000000000e+00 0.0000e+00 -1.0000e+00
       -2 -1    0    0    0  501 -0.0000000000e+00 -0.0000000000e+00 -7.4553795247e+01 7.4553795247e+01 0.0000000000e+00 0.0000e+00 1.0000e+00
      -13  1    1    2    0    0 +1.6562797007e+02 +1.8784486669e+02 +1.8980341014e+02 3.1423502815e+02 0.0000000000e+00 0.0000e+00 1.0000e+00
       13  1    1    2    0    0 -1.6562797007e+02 -1.8784486669e+02 +1.2584998384e+03 1.2831758109e+03 0.0000000000e+00 0.0000e+00 -1.0000e+00
<mgrwt>
<rscale>  0 0.67389843E+03</rscale>
<asrwt>0</asrwt>
<pdfrwt beam="1">  1        2 0.23428567E+00 0.67389843E+03</pdfrwt>
<pdfrwt beam="2">  1       -2 0.11469816E-01 0.67389843E+03</pdfrwt>
<totfact> 0.76798353E+02</totfact>
</mgrwt>
<rwgt>
<wgt id='morphing_basis_vector_1'> +2.3094216e-04 </wgt>
<wgt id='morphing_basis_vector_2'> +1.3523100e-04 </wgt>
<wgt id='morphing_basis_vector_3'> +1.9334932e-04 </wgt>
<wgt id='morphing_basis_vector_4'> +9.3635466e-05 </wgt>
<wgt id='morphing_basis_vector_5'> +1.4487449e-04 </wgt>
</rwgt>
</event>
<event>
 4      1 +5.9529000e-06 6.30412700e+02 7.81860800e-03 9.14765300e-02
        2 -1    0    0  501    0 +0.0000000000e+00 +0.0000000000e+00 +1.7193054041e+03 1.7193054041e+03 0.0000000000e+00 0.0000e+00 -1.0000e+00
       -2 -1    0    0    0  501 -0.0000000000e+00 -0.0000000000e+00 -5.7787888840e+01 5.7787888840e+01 0.0000000000e+00 0.0000e+00 1.0000e+00
      -13  1    1    2    0    0 +6.5531844544e+01 -2.7126625321e+02 +4.1765972008e+02 5.0231408955e+02 0.0000000000e+00 0.0000e+00 1.0000e+00
       13  1    1    2    0    0 -6.5531844544e+01 +2.7126625321e+02 +1.2438577952e+03 1.2747792034e+03 0.0000000000e+00 0.0000e+00 -1.0000e+00
<mgrwt>
<rscale>  0 0.63041266E+03</rscale>
<asrwt>0</asrwt>
<pdfrwt beam="1">  1        2 0.26450849E+00 0.63041266E+03</pdfrwt>
<pdfrwt beam="2">  1       -2 0.88904457E-02 0.63041266E+03</pdfrwt>
<totfact> 0.89689927E+02</totfact>
</mgrwt>
<rwgt>
<wgt id='morphing_basis_vector_1'> +1.8535303e-04 </wgt>
<wgt id='morphing_basis_vector_2'> +1.0866498e-04 </wgt>
<wgt id='morphing_basis_vector_3'> +1.4998392e-04 </wgt>
<wgt id='morphing_basis_vector_4'> +6.7656070e-05 </wgt>
<wgt id='morphing_basis_vector_5'> +1.0436716e-04 </wgt>
</rwgt>
</event>
<event>
 4      1 +5.9529000e-06 6.85982900e+02 7.81860800e-03 9.05911900e-02
        2 -1    0    0  501    0 +0.0000000000e+00 +0.0000000000e+00 +1.5116286284e+03 1.5116286284e+03 0.0000000000e+00 0.0000e+00 -1.0000e+00
       -2 -1    0    0    0  501 -0.0000000000e+00 -0.0000000000e+00 -7.7825413516e+01 7.7825413516e+01 0.0000000000e+00 0.0000e+00 1.0000e+00
      -13  1    1    2    0    0 -2.0799374506e+02 +2.2897836655e+02 +3.7361391866e+02 4.8505654366e+02 0.0000000000e+00 0.0000e+00 1.0000e+00
       13  1    1    2    0    0 +2.0799374506e+02 -2.2897836655e+02 +1.0601892962e+03 1.1043974983e+03 0.0000000000e+00 0.0000e+00 -1.0000e+00
<mgrwt>
<rscale>  0 0.68598287E+03</rscale>
<asrwt>0</asrwt>
<pdfrwt beam="1">  1        2 0.23255823E+00 0.68598287E+03</pdfrwt>
<pdfrwt beam="2">  1       -2 0.11973142E-01 0.68598287E+03</pdfrwt>
<totfact> 0.72725638E+02</totfact>
</mgrwt>
<rwgt>
<wgt id='morphing_basis_vector_1'> +2.4638658e-04 </wgt>
<wgt id='morphing_basis_vector_2'> +1.4751412e-04 </wgt>
<wgt id='morphing_basis_vector_3'> +2.0734124e-04 </wgt>
<wgt id='morphing_basis_vector_4'> +1.0067137e-04 </wgt>
<wgt id='morphing_basis_vector_5'> +1.5782264e-04 </wgt>
</rwgt>
</event>
<event>
 4      1 +5.9529000e-06 6.35236100e+02 7.81860800e-03 9.13959500e-02
        2 -1    0    0  501    0 +0.0000000000e+00 +0.0000000000e+00 +8.8679686340e+01 8.8679686340e+01 0.0000000000e+00 0.0000e+00 1.0000e+00
       -2 -1    0    0    0  501 -0.0000000000e+00 -0.0000000000e+00 -1.1375912672e+03 1.1375912672e+03 0.0000000000e+00 0.0000e+00 -1.0000e+00
      -13  1    1    2    0    0 +9.1370753564e+01 +3.0260556845e+02 -5.8434517243e+02 6.6436287164e+02 0.0000000000e+00 0.0000e+00 -1.0000e+00
       13  1    1    2    0    0 -9.1370753564e+01 -3.0260556845e+02 -4.6456640838e+02 5.6190808186e+02 0.0000000000e+00 0.0000e+00 1.0000e+00
<mgrwt>
<rscale>  0 0.63523613E+03</rscale>
<asrwt>0</asrwt>
<pdfrwt beam="1">  1        2 0.13643028E-01 0.63523613E+03</pdfrwt>
<pdfrwt beam="2">  1       -2 0.17501405E+00 0.63523613E+03</pdfrwt>
<totfact> 0.10528896E+02</totfact>
</mgrwt>
<rwgt>
<wgt id='morphing_basis_vector_1'> +1.9368045e-04 </wgt>
<wgt id='morphing_basis_vector_2'> +1.2270739e-04 </wgt>
<wgt id='morphing_basis_vector_3'> +1.5492207e-04 </wgt>
<wgt id='morphing_basis_vector_4'> +6.7022043e-05 </wgt>
<wgt id='morphing_basis_vector_5'> +1.0838242e-04 </wgt>
</rwgt>
</event>
<event>
 4      1 +5.9529000e-06 6.67693600e+02 7.81860800e-03 9.08725800e-02
        2 -1    0    0  501    0 +0.0000000000e+00 +0.0000000000e+00 +2.8993381519e+02 2.8993381519e+02 0.0000000000e+00 0.0000e+00 1.0000e+00
       -2 -1    0    0    0  501 -0.0000000000e+00 -0.0000000000e+00 -3.8441083203e+02 3.8441083203e+02 0.0000000000e+00 0.0000e+00 -1.0000e+00
      -13  1    1    2    0    0 -4.7721417699e+01 +2.6416195557e+02 -2.4769691421e+02 3.6525694215e+02 0.0000000000e+00 0.0000e+00 -1.0000e+00
       13  1    1    2    0    0 +4.7721417699e+01 -2.6416195557e+02 +1.5321989736e+02 3.0908770507e+02 0.0000000000e+00 0.0000e+00 1.0000e+00
<mgrwt>
<rscale>  0 0.66769364E+03</rscale>
<asrwt>0</asrwt>
<pdfrwt beam="1">  1        2 0.44605202E-01 0.66769364E+03</pdfrwt>
<pdfrwt beam="2">  1       -2 0.59140128E-01 0.66769364E+03</pdfrwt>
<totfact> 0.37854343E+02</totfact>
</mgrwt>
<rwgt>
<wgt id='morphing_basis_vector_1'> +2.2404730e-04 </wgt>
<wgt id='morphing_basis_vector_2'> +1.3147771e-04 </wgt>
<wgt id='morphing_basis_vector_3'> +1.8666814e-04 </wgt>
<wgt id='morphing_basis_vector_4'> +8.9438242e-05 </wgt>
<wgt id='morphing_basis_vector_5'> +1.3851144e-04 </wgt>
</rwgt>
</event>
<event>
 4      1 +5.9529000e-06 6.92987600e+02 7.81860800e-03 9.04858400e-02
        2 -1    0    0  501    0 +0.0000000000e+00 +0.0000000000e+00 +4.8285614060e+02 4.8285614060e+02 0.0000000000e+00 0.0000e+00 -1.0000e+00
       -2 -1    0    0    0  501 -0.0000000000e+00 -0.0000000000e+00 -2.4864126651e+02 2.4864126651e+02 0.0000000000e+00 0.0000e+00 1.0000e+00
      -13  1    1    2    0    0 -6.1027251729e+01 +3.1765530973e+02 -1.4007616580e+01 3.2376756258e+02 0.0000000000e+00 0.0000e+00 1.0000e+00
       13  1    1    2    0    0 +6.1027251729e+01 -3.1765530973e+02 +2.4822249066e+02 4.0772984454e+02 0.0000000000e+00 0.0000e+00 -1.0000e+00
<mgrwt>
<rscale>  0 0.69298763E+03</rscale>
<asrwt>0</asrwt>
<pdfrwt beam="1">  1        2 0.74285560E-01 0.69298763E+03</pdfrwt>
<pdfrwt beam="2">  1       -2 0.38252503E-01 0.69298763E+03</pdfrwt>
<totfact> 0.49441744E+02</totfact>
</mgrwt>
<rwgt>
<wgt id='morphing_basis_vector_1'> +2.5568211e-04 </wgt>
<wgt id='morphing_basis_vector_2'> +1.5491746e-04 </wgt>
<wgt id='morphing_basis_vector_3'> +2.1583017e-04 </wgt>
<wgt id='morphing_basis_vector_4'> +1.0492305e-04 </wgt>
<wgt id='morphing_basis_vector_5'> +1.6568891e-04 </wgt>
</rwgt>
</event>
<event>
 4      1 +5.9529000e-06 6.24536300e+02 7.81860800e-03 9.15757200e-02
        2 -1    0    0  501    0 +0.0000000000e+00 +0.0000000000e+00 +7.6601831432e+02 7.6601831432e+02 0.0000000000e+00 0.0000e+00 -1.0000e+00
       -2 -1    0    0    0  501 -0.0000000000e+00 -0.0000000000e+00 -1.2729641477e+02 1.2729641477e+02 0.0000000000e+00 0.0000e+00 1.0000e+00
      -13  1    1    2    0    0 +1.0748342695e+01 -2.1046556188e+02 -1.0244609614e+01 2.1098870025e+02 0.0000000000e+00 0.0000e+00 1.0000e+00
       13  1    1    2    0    0 -1.0748342695e+01 +2.1046556188e+02 +6.4896650917e+02 6.8232602884e+02 0.0000000000e+00 0.0000e+00 -1.0000e+00
<mgrwt>
<rscale>  0 0.62453626E+03</rscale>
<asrwt>0</asrwt>
<pdfrwt beam="1">  1        2 0.11784897E+00 0.62453626E+03</pdfrwt>
<pdfrwt beam="2">  1       -2 0.19584064E-01 0.62453626E+03</pdfrwt>
<totfact> 0.91910946E+02</totfact>
</mgrwt>
<rwgt>
<wgt id='morphing_basis_vector_1'> +1.7896377e-04 </wgt>
<wgt id='morphing_basis_vector_2'> +1.0286748e-04 </wgt>
<wgt id='morphing_basis_vector_3'> +1.4465947e-04 </wgt>
<wgt id='morphing_basis_vector_4'> +6.5307190e-05 </wgt>
<wgt id='morphing_basis_vector_5'> +9.9591414e-05 </wgt>
</rwgt>
</event>
<event>
 4      1 +5.9529000e-06 6.44529400e+02 7.81860800e-03 9.12428100e-02
        2 -1    0    0  501    0 +0.0000000000e+00 +0.0000000000e+00 +1.5111251258e+03 1.5111251258e+03 0.0000000000e+00 0.0000e+00 -1.0000e+00
       -2 -1    0    0    0  501 -0.0000000000e+00 -0.0000000000e+00 -6.8726623124e+01 6.8726623124e+01 0.0000000000e+00 0.0000e+00 1.0000e+00
      -13  1    1    2    0    0 -2.9445845557e+02 -5.2150614849e+01 +4.2676209270e+02 5.2110589370e+02 0.0000000000e+00 0.0000e+00 1.0000e+00
       13  1    1    2    0    0 +2.9445845557e+02 +5.2150614849e+01 +1.0156364099e+03 1.0587458552e+03 0.0000000000e+00 0.0000e+00 -1.0000e+00
<mgrwt>
<rscale>  0 0.64452937E+03</rscale>
<asrwt>0</asrwt>
<pdfrwt beam="1">  1        2 0.23248076E+00 0.64452937E+03</pdfrwt>
<pdfrwt beam="2">  1       -2 0.10573328E-01 0.64452937E+03</pdfrwt>
<totfact> 0.88749456E+02</totfact>
</mgrwt>
<rwgt>
<wgt id='morphing_basis_vector_1'> +2.0006523e-04 </wgt>
<wgt id='morphing_basis_vector_2'> +1.1920023e-04 </wgt>
<wgt id='morphing_basis_vector_3'> +1.6328863e-04 </wgt>
<wgt id='morphing_basis_vector_4'> +7.4704815e-05 </wgt>
<wgt id='morphing_basis_vector_5'> +1.1649318e-04 </wgt>
</rwgt>
</event>
<event>
 4      1 +5.9529000e-06 7.44012100e+02 7.81860800e-03 8.97555900e-02
        2 -1    0    0  501    0 +0.0000000000e+00 +0.0000000000e+00 +2.0323234567e+02 2.0323234567e+02 0.0000000000e+00 0.0000e+00 1.0000e+00
       -2 -1    0    0    0  501 -0.0000000000e+00 -0.0000000000e+00 -6.8093738677e+02 6.8093738677e+02 0.0000000000e+00 0.0000e+00 -1.0000e+00
      -13  1    1    2    0    0 +8.3998162978e+01 -9.6426028787e+01 +1.7629031473e+02 2.1778876344e+02 0.0000000000e+00 0.0000e+00 1.0000e+00
       13  1    1    2    0    0 -8.3998162978e+01 +9.6426028787e+01 -6.5399535582e+02 6.6638096900e+02 0.0000000000e+00 0.0000e+00 -1.0000e+00
<mgrwt>
<rscale>  0 0.74401210E+03</rscale>
<asrwt>0</asrwt>
<pdfrwt beam="1">  1        2 0.31266515E-01 0.74401210E+03</pdfrwt>
<pdfrwt beam="2">  1       -2 0.10475960E+00 0.74401210E+03</pdfrwt>
<totfact> 0.15776186E+02</totfact>
</mgrwt>
<rwgt>
<wgt id='morphing_basis_vector_1'> +4.4070499e-04 </wgt>
<wgt id='morphing_basis_vector_2'> +5.5120048e-04 </wgt>
<wgt id='morphing_basis_vector_3'> +3.3754626e-04 </wgt>
<wgt id='morphing_basis_vector_4'> +1.4270419e-05 </wgt>
<wgt id='morphing_basis_vector_5'> +2.2723796e-04 </wgt>
</rwgt>
</event>
<event>
 4      1 +5.9529000e-06 6.60874000e+02 7.81860800e-03 9.09799300e-02
        2 -1    0    0  501    0 +0.0000000000e+00 +0.0000000000e+00 +7.5488084738e+02 7.5488084738e+02 0.0000000000e+00 0.0000e+00 1.0000e+00
       -2 -1    0    0    0  501 -0.0000000000e+00 -0.0000000000e+00 -1.4464349283e+02 1.4464349283e+02 0.0000000000e+00 0.0000e+00 -1.0000e+00
      -13  1    1    2    0    0 -2.6057911122e+02 -1.2954137000e+02 +5.1819339721e+02 5.9431207010e+02 0.0000000000e+00 0.0000e+00 -1.0000e+00
       13  1    1    2    0    0 +2.6057911122e+02 +1.2954137000e+02 +9.2043957336e+01 3.0521227011e+02 0.0000000000e+00 0.0000e+00 1.0000e+00
<mgrwt>
<rscale>  0 0.66087397E+03</rscale>
<asrwt>0</asrwt>
<pdfrwt beam="1">  1        2 0.11613551E+00 0.66087397E+03</pdfrwt>
<pdfrwt beam="2">  1       -2 0.22252845E-01 0.66087397E+03</pdfrwt>
<totfact> 0.75553771E+02</totfact>
</mgrwt>
<rwgt>
<wgt id='morphing_basis_vector_1'> +2.5126330e-04 </wgt>
<wgt id='morphing_basis_vector_2'> +2.3438355e-04 </wgt>
<wgt id='morphing_basis_vector_3'> +1.8750821e-04 </wgt>
<wgt id='morphing_basis_vector_4'> +5.2083524e-05 </wgt>
<wgt id='morphing_basis_vector_5'> +1.3122021e-04 </wgt>
</rwgt>
</event>
<event>
 4      1 +5.9529000e-06 6.56717600e+02 7.81860800e-03 9.10460200e-02
        2 -1    0    0  501    0 +0.0000000000e+00 +0.0000000000e+00 +1.1270129638e+03 1.1270129638e+03 0.0000000000e+00 0.0000e+00 1.0000e+00
       -2 -1    0    0    0  501 -0.0000000000e+00 -0.0000000000e+00 -9.5668382603e+01 9.5668382603e+01 0.0000000000e+00 0.0000e+00 -1.0000e+00
      -13  1    1    2    0    0 +1.7760197418e+02 -1.7741803642e+02 +1.2160256070e+02 2.7893870949e+02 0.0000000000e+00 0.0000e+00 -1.0000e+00
       13  1    1    2    0    0 -1.7760197418e+02 +1.7741803642e+02 +9.0974202050e+02 9.4374263692e+02 0.0000000000e+00 0.0000e+00 1.0000e+00
<mgrwt>
<rscale>  0 0.65671762E+03</rscale>
<asrwt>0</asrwt>
<pdfrwt beam="1">  1        2 0.17338660E+00 0.65671762E+03</pdfrwt>
<pdfrwt beam="2">  1       -2 0.14718213E-01 0.65671762E+03</pdfrwt>
<totfact> 0.86257010E+02</totfact>
</mgrwt>
<rwgt>
<wgt id='morphing_basis_vector_1'> +2.1174499e-04 </wgt>
<wgt id='morphing_basis_vector_2'> +1.2347430e-04 </wgt>
<wgt id='morphing_basis_vector_3'> +1.7516109e-04 </wgt>
<wgt id='morphing_basis_vector_4'> +8.2836097e-05 </wgt>
<wgt id='morphing_basis_vector_5'> +1.2775123e-04 </wgt>
</rwgt>
</event>
<event>
 4      1 +5.9529000e-06 7.33839700e+02 7.81860800e-03 8.98961500e-02
        2 -1    0    0  501    0 +0.0000000000e+00 +0.0000000000e+00 +6.4341492014e+02 6.4341492014e+02 0.0000000000e+00 0.0000e+00 -1.0000e+00
       -2 -1    0    0    0  501 -0.0000000000e+00 -0.0000000000e+00 -2.0924316668e+02 2.0924316668e+02 0.0000000000e+00 0.0000e+00 1.0000e+00
      -13  1    1    2    0    0 +8.9945147033e+01 -3.2167690067e+02 +4.0627941488e+01 3.3647702378e+02 0.0000000000e+00 0.0000e+00 1.0000e+00
       13  1    1    2    0    0 -8.9945147033e+01 +3.2167690067e+02 +3.9354381198e+02 5.1618106305e+02 0.0000000000e+00 0.0000e+00 -1.0000e+00
<mgrwt>
<rscale>  0 0.73383970E+03</rscale>
<asrwt>0</asrwt>
<pdfrwt beam="1">  1        2 0.98986910E-01 0.73383970E+03</pdfrwt>
<pdfrwt beam="2">  1       -2 0.32191257E-01 0.73383970E+03</pdfrwt>
<totfact> 0.48347794E+02</totfact>
</mgrwt>
<rwgt>
<wgt id='morphing_basis_vector_1'> +3.1081924e-04 </wgt>
<wgt id='morphing_basis_vector_2'> +1.8902151e-04 </wgt>
<wgt id='morphing_basis_vector_3'> +2.6926078e-04 </wgt>
<wgt id='morphing_basis_vector_4'> +1.3736772e-04 </wgt>
<wgt id='morphing_basis_vector_5'> +2.1733542e-04 </wgt>
</rwgt>
</event>
<event>
 4      1 +5.9529000e-06 7.43789200e+02 7.81860800e-03 8.97586400e-02
        2 -1    0    0  501    0 +0.0000000000e+00 +0.0000000000e+00 +6.1710907339e+02 6.1710907339e+02 0.0000000000e+00 0.0000e+00 1.0000e+00
       -2 -1    0    0    0  501 -0.0000000000e+00 -0.0000000000e+00 -2.2411857527e+02 2.2411857527e+02 0.0000000000e+00 0.0000e+00 -1.0000e+00
      -13  1    1    2    0    0 -8.2263333166e+01 +3.1074824395e+02 -1.5017014512e+01 3.2180310413e+02 0.0000000000e+00 0.0000e+00 -1.0000e+00
       13  1    1    2    0    0 +8.2263333166e+01 -3.1074824395e+02 +4.0800751263e+02 5.1942454453e+02 0.0000000000e+00 0.0000e+00 1.0000e+00
<mgrwt>
<rscale>  0 0.74378923E+03</rscale>
<asrwt>0</asrwt>
<pdfrwt beam="1">  1        2 0.94939856E-01 0.74378923E+03</pdfrwt>
<pdfrwt beam="2">  1       -2 0.34479781E-01 0.74378923E+03</pdfrwt>
<totfact> 0.44902687E+02</totfact>
</mgrwt>
<rwgt>
<wgt id='morphing_basis_vector_1'> +3.2495373e-04 </wgt>
<wgt id='morphing_basis_vector_2'> +1.9626850e-04 </wgt>
<wgt id='morphing_basis_vector_3'> +2.8338576e-04 </wgt>
<wgt id='morphing_basis_vector_4'> +1.4697916e-04 </wgt>
<wgt id='morphing_basis_vector_5'> +2.3149289e-04 </wgt>
</rwgt>
</event>
<event>
 4      1 +5.9529000e-06 7.24154400e+02 7.81860800e-03 9.00322600e-02
        2 -1    0    0  501    0 +0.0000000000e+00 +0.0000000000e+00 +8.9990493541e+02 8.9990493541e+02 0.0000000000e+00 0.0000e+00 -1.0000e+00
       -2 -1    0    0    0  501 -0.0000000000e+00 -0.0000000000e+00 -1.4568192902e+02 1.4568192902e+02 0.0000000000e+00 0.0000e+00 1.0000e+00
      -13  1    1    2    0    0 +3.4475467301e+02 -4.9822975875e+01 +2.3445442454e+02 4.1988926001e+02 0.0000000000e+00 0.0000e+00 1.0000e+00
       13  1    1    2    0    0 -3.4475467301e+02 +4.9822975875e+01 +5.1976858185e+02 6.2569760441e+02 0.0000000000e+00 0.0000e+00 -1.0000e+00
<mgrwt>
<rscale>  0 0.72415437E+03</rscale>
<asrwt>0</asrwt>
<pdfrwt beam="1">  1        2 0.13844691E+00 0.72415437E+03</pdfrwt>
<pdfrwt beam="2">  1       -2 0.22412605E-01 0.72415437E+03</pdfrwt>
<totfact> 0.59349838E+02</totfact>
</mgrwt>
<rwgt>
<wgt id='morphing_basis_vector_1'> +2.9851012e-04 </wgt>
<wgt id='morphing_basis_vector_2'> +1.8518235e-04 </wgt>
<wgt id='morphing_basis_vector_3'> +2.5641131e-04 </wgt>
<wgt id='morphing_basis_vector_4'> +1.2738493e-04 </wgt>
<wgt id='morphing_basis_vector_5'> +2.0412760e-04 </wgt>
</rwgt>
</event>
<event>
 4      1 +5.9529000e-06 6.79633300e+02 7.81860800e-03 9.06878400e-02
        2 -1    0    0  501    0 +0.0000000000e+00 +0.0000000000e+00 +2.4482459103e+03 2.4482459103e+03 0.0000000000e+00 0.0000e+00 -1.0000e+00
       -2 -1    0    0    0  501 -0.0000000000e+00 -0.0000000000e+00 -4.7166566980e+01 4.7166566980e+01 0.0000000000e+00 0.0000e+00 1.0000e+00
      -13  1    1    2    0    0 +2.8696585547e+02 -1.2332612702e+02 +7.0907113251e+02 7.7481649877e+02 0.0000000000e+00 0.0000e+00 1.0000e+00
       13  1    1    2    0    0 -2.8696585547e+02 +1.2332612702e+02 +1.6920082108e+03 1.7205959785e+03 0.0000000000e+00 0.0000e+00 -1.0000e+00
<mgrwt>
<rscale>  0 0.67963330E+03</rscale>
<asrwt>0</asrwt>
<pdfrwt beam="1">  1        2 0.37665312E+00 0.67963330E+03</pdfrwt>
<pdfrwt beam="2">  1       -2 0.72563968E-02 0.67963330E+03</pdfrwt>
<totfact> 0.48117787E+02</totfact>
</mgrwt>
<rwgt>
<wgt id='morphing_basis_vector_1'> +2.3899835e-04 </wgt>
<wgt id='morphing_basis_vector_2'> +1.4351208e-04 </wgt>
<wgt id='morphing_basis_vector_3'> +2.0012423e-04 </wgt>
<wgt id='morphing_basis_vector_4'> +9.6108522e-05 </wgt>
<wgt id='morphing_basis_vector_5'> +1.5090501e-04 </wgt>
</rwgt>
</event>
<event>
 4      1 +5.9529000e-06 7.36603300e+02 7.81860800e-03 8.98577200e-02
        2 -1    0    0  501    0 +0.0000000000e+00 +0.0000000000e+00 +1.3879706226e+03 1.3879706226e+03 0.0000000000e+00 0.0000e+00 1.0000e+00
       -2 -1    0    0    0  501 -0.0000000000e+00 -0.0000000000e+00 -9.7729816282e+01 9.7729816282e+01 0.0000000000e+00 0.0000e+00 -1.0000e+00
      -13  1    1    2    0    0 +3.0213316164e+02 -8.3604819442e+01 +1.0350356083e+03 1.0814679485e+03 0.0000000000e+00 0.0000e+00 1.0000e+00
       13  1    1    2    0    0 -3.0213316164e+02 +8.3604819442e+01 +2.5520519806e+02 4.0423249042e+02 0.0000000000e+00 0.0000e+00 -1.0000e+00
<mgrwt>
<rscale>  0 0.73660332E+03</rscale>
<asrwt>0</asrwt>
<pdfrwt beam="1">  1        2 0.21353393E+00 0.73660332E+03</pdfrwt>
<pdfrwt beam="2">  1       -2 0.15035357E-01 0.73660332E+03</pdfrwt>
<totfact> 0.58934453E+02</totfact>
</mgrwt>
<rwgt>
<wgt id='morphing_basis_vector_1'> +3.7230151e-04 </wgt>
<wgt id='morphing_basis_vector_2'> +3.6815033e-04 </wgt>
<wgt id='morphing_basis_vector_3'> +2.9891615e-04 </wgt>
<wgt id='morphing_basis_vector_4'> +7.4571498e-05 </wgt>
<wgt id='morphing_basis_vector_5'> +2.1903407e-04 </wgt>
</rwgt>
</event>
<event>
 4      1 +5.9529000e-06 7.20409900e+02 7.81860800e-03 9.00854900e-02
        2 -1    0    0  501    0 +0.0000000000e+00 +0.0000000000e+00 +1.6958827593e+03 1.6958827593e+03 0.0000000000e+00 0.0000e+00 -1.0000e+00
       -2 -1    0    0    0  501 -0.0000000000e+00 -0.0000000000e+00 -7.6507413705e+01 7.6507413705e+01 0.0000000000e+00 0.0000e+00 1.0000e+00
      -13  1    1    2    0    0 +2.5930171602e+02 -1.8801112555e+02 +4.0421567985e+02 5.1572849359e+02 0.0000000000e+00 0.0000e+00 1.0000e+00
       13  1    1    2    0    0 -2.5930171602e+02 +1.8801112555e+02 +1.2151596657e+03 1.2566616794e+03 0.0000000000e+00 0.0000e+00 -1.0000e+00
<mgrwt>
<rscale>  0 0.72040989E+03</rscale>
<asrwt>0</asrwt>
<pdfrwt beam="1">  1        2 0.26090501E+00 0.72040989E+03</pdfrwt>
<pdfrwt beam="2">  1       -2 0.11770373E-01 0.72040989E+03</pdfrwt>
<totfact> 0.59103534E+02</totfact>
</mgrwt>
<rwgt>
<wgt id='morphing_basis_vector_1'> +2.9121487e-04 </wgt>
<wgt id='morphing_basis_vector_2'> +1.7556805e-04 </wgt>
<wgt id='morphing_basis_vector_3'> +2.5048132e-04 </wgt>
<wgt id='morphing_basis_vector_4'> +1.2657796e-04 </wgt>
<wgt id='morphing_basis_vector_5'> +1.9926783e-04 </wgt>
</rwgt>
</event>
<event>
 4      1 +5.9529000e-06 6.44778400e+02 7.81860800e-03 9.12387400e-02
        2 -1    0    0  501    0 +0.0000000000e+00 +0.0000000000e+00 +1.8575024872e+03 1.8575024872e+03 0.0000000000e+00 0.0000e+00 1.0000e+00
       -2 -1    0    0    0  501 -0.0000000000e+00 -0.0000000000e+00 -5.5954058403e+01 5.5954058403e+01 0.0000000000e+00 0.0000e+00 -1.0000e+00
      -13  1    1    2    0    0 +1.8676602353e+02 +2.5078821520e+02 +6.6788653787e+02 7.3746098465e+02 0.0000000000e+00 0.0000e+00 -1.0000e+00
       13  1    1    2    0    0 -1.8676602353e+02 -2.5078821520e+02 +1.1336618910e+03 1.1759955610e+03 0.0000000000e+00 0.0000e+00 1.0000e+00
<mgrwt>
<rscale>  0 0.64477842E+03</rscale>
<asrwt>0</asrwt>
<pdfrwt beam="1">  1        2 0.28576957E+00 0.64477842E+03</pdfrwt>
<pdfrwt beam="2">  1       -2 0.86083181E-02 0.64477842E+03</pdfrwt>
<totfact> 0.79217271E+02</totfact>
</mgrwt>
<rwgt>
<wgt id='morphing_basis_vector_1'> +2.0147172e-04 </wgt>
<wgt id='morphing_basis_vector_2'> +1.2291548e-04 </wgt>
<wgt id='morphing_basis_vector_3'> +1.6373486e-04 </wgt>
<wgt id='morphing_basis_vector_4'> +7.3801519e-05 </wgt>
<wgt id='morphing_basis_vector_5'> +1.1670402e-04 </wgt>
</rwgt>
</event>
<event>
 4      1 +5.9529000e-06 7.30066700e+02 7.81860800e-03 8.99489100e-02
        2 -1    0    0  501    0 +0.0000000000e+00 +0.0000000000e+00 +1.7521646162e+03 1.7521646162e+03 0.0000000000e+00 0.0000e+00 -1.0000e+00
       -2 -1    0    0    0  501 -0.0000000000e+00 -0.0000000000e+00 -7.6048410753e+01 7.6048410753e+01 0.0000000000e+00 0.0000e+00 1.0000e+00
      -13  1    1    2    0    0 +2.2896688903e+02 +2.7403269413e+02 +1.0276089369e+03 1.0878878072e+03 0.0000000000e+00 0.0000e+00 1.0000e+00
       13  1    1    2    0    0 -2.2896688903e+02 -2.7403269413e+02 +6.4850726846e+02 7.4032521973e+02 0.0000000000e+00 0.0000e+00 -1.0000e+00
<mgrwt>
<rscale>  0 0.73006667E+03</rscale>
<asrwt>0</asrwt>
<pdfrwt beam="1">  1        2 0.26956376E+00 0.73006667E+03</pdfrwt>
<pdfrwt beam="2">  1       -2 0.11699757E-01 0.73006667E+03</pdfrwt>
<totfact> 0.55553736E+02</totfact>
</mgrwt>
<rwgt>
<wgt id='morphing_basis_vector_1'> +3.2512669e-04 </wgt>
<wgt id='morphing_basis_vector_2'> +2.4643573e-04 </wgt>
<wgt id='morphing_basis_vector_3'> +2.7245393e-04 </wgt>
<wgt id='morphing_basis_vector_4'> +1.1194183e-04 </wgt>
<wgt id='morphing_basis_vector_5'> +2.1143221e-04 </wgt>
</rwgt>
</event>
<event>
 4      1 +5.9529000e-06 7.08211700e+02 7.81860800e-03 9.02612500e-02
        2 -1    0    0  501    0 +0.0000000000e+00 +0.0000000000e+00 +1.1474185176e+03 1.1474185176e+03 0.0000000000e+00 0.0000e+00 1.0000e+00
       -2 -1    0    0    0  501 -0.0000000000e+00 -0.0000000000e+00 -1.0928091853e+02 1.0928091853e+02 0.0000000000e+00 0.0000e+00 -1.0000e+00
      -13  1    1    2    0    0 -3.5197029478e+01 +1.9377299679e+02 -3.1321613700e+00 1.9696856502e+02 0.0000000000e+00 0.0000e+00 -1.0000e+00
       13  1    1    2    0    0 +3.5197029478e+01 -1.9377299679e+02 +1.0412697605e+03 1.0597308711e+03 0.0000000000e+00 0.0000e+00 1.0000e+00
<mgrwt>
<rscale>  0 0.70821169E+03</rscale>
<asrwt>0</asrwt>
<pdfrwt beam="1">  1        2 0.17652592E+00 0.70821169E+03</pdfrwt>
<pdfrwt beam="2">  1       -2 0.16812450E-01 0.70821169E+03</pdfrwt>
<totfact> 0.67482167E+02</totfact>
</mgrwt>
<rwgt>
<wgt id='morphing_basis_vector_1'> +2.7323950e-04 </wgt>
<wgt id='morphing_basis_vector_2'> +1.6083744e-04 </wgt>
<wgt id='morphing_basis_vector_3'> +2.3395241e-04 </wgt>
<wgt id='morphing_basis_vector_4'> +1.1841239e-04 </wgt>
<wgt id='morphing_basis_vector_5'> +1.8383635e-04 </wgt>
</rwgt>
</event>
<event>
 4      1 +5.9529000e-06 6.54605600e+02 7.81860800e-03 9.10798000e-02
        2 -1    0    0  501    0 +0.0000000000e+00 +0.0000000000e+00 +5.4929192964e+02 5.4929192964e+02 0.0000000000e+00 0.0000e+00 -1.0000e+00
       -2 -1    0    0    0  501 -0.0000000000e+00 -0.0000000000e+00 -1.9502766034e+02 1.9502766034e+02 0.0000000000e+00 0.0000e+00 1.0000e+00
      -13  1    1    2    0    0 +6.6644825933e+01 +3.0600087325e+02 +6.8968494089e+01 3.2067853129e+02 0.0000000000e+00 0.0000e+00 1.0000e+00
       13  1    1    2    0    0 -6.6644825933e+01 -3.0600087325e+02 +2.8529577520e+02 4.2364105869e+02 0.0000000000e+00 0.0000e+00 -1.0000e+00
<mgrwt>
<rscale>  0 0.65460559E+03</rscale>
<asrwt>0</asrwt>
<pdfrwt beam="1">  1        2 0.84506450E-01 0.65460559E+03</pdfrwt>
<pdfrwt beam="2">  1       -2 0.30004256E-01 0.65460559E+03</pdfrwt>
<totfact> 0.66089457E+02</totfact>
</mgrwt>
<rwgt>
<wgt id='morphing_basis_vector_1'> +2.1142906e-04 </wgt>
<wgt id='morphing_basis_vector_2'> +1.2812603e-04 </wgt>
<wgt id='morphing_basis_vector_3'> +1.7343158e-04 </wgt>
<wgt id='morphing_basis_vector_4'> +7.9750400e-05 </wgt>
<wgt id='morphing_basis_vector_5'> +1.2572400e-04 </wgt>
</rwgt>
</event>
<event>
 4      1 +5.9529000e-06 7.14386000e+02 7.81860800e-03 9.01718300e-02
        2 -1    0    0  501    0 +0.0000000000e+00 +0.0000000000e+00 +1.1980456064e+03 1.1980456064e+03 0.0000000000e+00 0.0000e+00 1.0000e+00
       -2 -1    0    0    0  501 -0.0000000000e+00 -0.0000000000e+00 -1.0649580992e+02 1.0649580992e+02 0.0000000000e+00 0.0000e+00 -1.0000e+00
      -13  1    1    2    0    0 -3.3788549914e+02 +1.1022050387e+02 +6.1089449033e+02 7.0675826725e+02 0.0000000000e+00 0.0000e+00 1.0000e+00
       13  1    1    2    0    0 +3.3788549914e+02 -1.1022050387e+02 +4.8065530616e+02 5.9778314910e+02 0.0000000000e+00 0.0000e+00 -1.0000e+00
<mgrwt>
<rscale>  0 0.71438599E+03</rscale>
<asrwt>0</asrwt>
<pdfrwt beam="1">  1        2 0.18431470E+00 0.71438599E+03</pdfrwt>
<pdfrwt beam="2">  1       -2 0.16383972E-01 0.71438599E+03</pdfrwt>
<totfact> 0.65754212E+02</totfact>
</mgrwt>
<rwgt>
<wgt id='morphing_basis_vector_1'> +2.9538677e-04 </wgt>
<wgt id='morphing_basis_vector_2'> +2.0871096e-04 </wgt>
<wgt id='morphing_basis_vector_3'> +2.4731523e-04 </wgt>
<wgt id='morphing_basis_vector_4'> +1.0821689e-04 </wgt>
<wgt id='morphing_basis_vector_5'> +1.9112392e-04 </wgt>
</rwgt>
</event>
<event>
 4      1 +5.9529000e-06 7.06021500e+02 7.81860800e-03 9.02932000e-02
        2 -1    0    0  501    0 +0.0000000000e+00 +0.0000000000e+00 +2.5438486117e+02 2.5438486117e+02 0.0000000000e+00 0.0000e+00 -1.0000e+00
       -2 -1    0    0    0  501 -0.0000000000e+00 -0.0000000000e+00 -4.8987426179e+02 4.8987426179e+02 0.0000000000e+00 0.0000e+00 1.0000e+00
      -13  1    1    2    0    0 -2.4137386497e+02 +2.3515725736e+02 -2.2858852012e+02 4.0720141197e+02 0.0000000000e+00 0.0000e+00 1.0000e+00
       13  1    1    2    0    0 +2.4137386497e+02 -2.3515725736e+02 -6.9008804972e+00 3.3705771098e+02 0.0000000000e+00 0.0000e+00 -1.0000e+00
<mgrwt>
<rscale>  0 0.70602152E+03</rscale>
<asrwt>0</asrwt>
<pdfrwt beam="1">  1        2 0.39136132E-01 0.70602152E+03</pdfrwt>
<pdfrwt beam="2">  1       -2 0.75365271E-01 0.70602152E+03</pdfrwt>
<totfact> 0.26288508E+02</totfact>
</mgrwt>
<rwgt>
<wgt id='morphing_basis_vector_1'> +2.7320944e-04 </wgt>
<wgt id='morphing_basis_vector_2'> +1.6784810e-04 </wgt>
<wgt id='morphing_basis_vector_3'> +2.3221942e-04 </wgt>
<wgt id='morphing_basis_vector_4'> +1.1367463e-04 </wgt>
<wgt id='morphing_basis_vector_5'> +1.8106758e-04 </wgt>
</rwgt>
</event>
<event>
 4      1 +5.9529000e-06 7.11769800e+02 7.81860800e-03 9.02096100e-02
        2 -1    0    0  501    0 +0.0000000000e+00 +0.0000000000e+00 +1.5373700767e+03 1.5373700767e+03 0.0000000000e+00 0.0000e+00 1.0000e+00
       -2 -1    0    0    0  501 -0.0000000000e+00 -0.0000000000e+00 -8.2383583408e+01 8.2383583408e+01 0.0000000000e+00 0.0000e+00 -1.0000e+00
      -13  1    1    2    0    0 +2.4182236361e+02 +2.4194905977e+02 +5.0409871859e+02 6.0920679670e+02 0.0000000000e+00 0.0000e+00 -1.0000e+00
       13  1    1    2    0    0 -2.4182236361e+02 -2.4194905977e+02 +9.5088777471e+02 1.0105468634e+03 0.0000000000e+00 0.0000e+00 1.0000e+00
<mgrwt>
<rscale>  0 0.71176978E+03</rscale>
<asrwt>0</asrwt>
<pdfrwt beam="1">  1        2 0.23651845E+00 0.71176978E+03</pdfrwt>
<pdfrwt beam="2">  1       -2 0.12674399E-01 0.71176978E+03</pdfrwt>
<totfact> 0.64201385E+02</totfact>
</mgrwt>
<rwgt>
<wgt id='morphing_basis_vector_1'> +2.8122614e-04 </wgt>
<wgt id='morphing_basis_vector_2'> +1.7377654e-04 </wgt>
<wgt id='morphing_basis_vector_3'> +2.3975725e-04 </wgt>
<wgt id='morphing_basis_vector_4'> +1.1769824e-04 </wgt>
<wgt id='morphing_basis_vector_5'> +1.8816026e-04 </wgt>
</rwgt>
</event>
<event>
 4      1 +5.9529000e-06 6.50812200e+02 7.81860800e-03 9.11408000e-02
        2 -1    0    0  501    0 +0.0000000000e+00 +0.0000000000e+00 +5.5123840355e+02 5.5123840355e+02 0.0000000000e+00 0.0000e+00 1.0000e+00
       -2 -1    0    0    0  501 -0.0000000000e+00 -0.0000000000e+00 -1.9209315012e+02 1.9209315012e+02 0.0000000000e+00 0.0000e+00 -1.0000e+00
      -13  1    1    2    0    0 -2.0202493485e+02 -2.5072189659e+02 +1.2583551956e+02 3.4570236001e+02 0.0000000000e+00 0.0000e+00 -1.0000e+00
       13  1    1    2    0    0 +2.0202493485e+02 +2.5072189659e+02 +2.3330973387e+02 3.9762919366e+02 0.0000000000e+00 0.0000e+00 1.0000e+00
<mgrwt>
<rscale>  0 0.65081217E+03</rscale>
<asrwt>0</asrwt>
<pdfrwt beam="1">  1        2 0.84805908E-01 0.65081217E+03</pdfrwt>
<pdfrwt beam="2">  1       -2 0.29552792E-01 0.65081217E+03</pdfrwt>
<totfact> 0.67604512E+02</totfact>
</mgrwt>
<rwgt>
<wgt id='morphing_basis_vector_1'> +2.0918143e-04 </wgt>
<wgt id='morphing_basis_vector_2'> +1.3117025e-04 </wgt>
<wgt id='morphing_basis_vector_3'> +1.6996602e-04 </wgt>
<wgt id='morphing_basis_vector_4'> +7.5897126e-05 </wgt>
<wgt id='morphing_basis_vector_5'> +1.2216599e-04 </wgt>
</rwgt>
</event>
<event>
 4      1 +5.9529000e-06 6.37034100e+02 7.81860800e-03 9.13661100e-02
        2 -1    0    0  501    0 +0.0000000000e+00 +0.0000000000e+00 +4.1930985956e+02 4.1930985956e+02 0.0000000000e+00 0.0000e+00 -1.0000e+00
       -2 -1    0    0    0  501 -0.0000000000e+00 -0.0000000000e+00 -2.4195258181e+02 2.4195258181e+02 0.0000000000e+00 0.0000e+00 1.0000e+00
      -13  1    1    2    0    0 -2.3067195960e+02 -1.3849390078e+02 +2.6564117601e+02 3.7809436374e+02 0.0000000000e+00 0.0000e+00 1.0000e+00
       13  1    1    2    0    0 +2.3067195960e+02 +1.3849390078e+02 -8.8283898253e+01 2.8316807763e+02 0.0000000000e+00 0.0000e+00 -1.0000e+00
<mgrwt>
<rscale>  0 0.63703407E+03</rscale>
<asrwt>0</asrwt>
<pdfrwt beam="1">  1        2 0.64509209E-01 0.63703407E+03</pdfrwt>
<pdfrwt beam="2">  1       -2 0.37223474E-01 0.63703407E+03</pdfrwt>
<totfact> 0.61056779E+02</totfact>
</mgrwt>
<rwgt>
<wgt id='morphing_basis_vector_1'> +2.2779857e-04 </wgt>
<wgt id='morphing_basis_vector_2'> +2.2385784e-04 </wgt>
<wgt id='morphing_basis_vector_3'> +1.6153602e-04 </wgt>
<wgt id='morphing_basis_vector_4'> +3.9384264e-05 </wgt>
<wgt id='morphing_basis_vector_5'> +1.0966939e-04 </wgt>
</rwgt>
</event>
<event>
 4      1 +5.9529000e-06 6.59186000e+02 7.81860800e-03 9.10067100e-02
        2 -1    0    0  501    0 +0.0000000000e+00 +0.0000000000e+00 +2.3330993210e+03 2.3330993210e+03 0.0000000000e+00 0.0000e+00 1.0000e+00
       -2 -1    0    0    0  501 -0.0000000000e+00 -0.0000000000e+00 -4.6561044389e+01 4.6561044389e+01 0.0000000000e+00 0.0000e+00 -1.0000e+00
      -13  1    1    2    0    0 +9.4567836781e+01 -3.1419011901e+02 +1.0306606544e+03 1.0816283517e+03 0.0000000000e+00 0.0000e+00 -1.0000e+00
       13  1    1    2    0    0 -9.4567836781e+01 +3.1419011901e+02 +1.2558776223e+03 1.2980320138e+03 0.0000000000e+00 0.0000e+00 1.0000e+00
<mgrwt>
<rscale>  0 0.65918599E+03</rscale>
<asrwt>0</asrwt>
<pdfrwt beam="1">  1        2 0.35893827E+00 0.65918599E+03</pdfrwt>
<pdfrwt beam="2">  1       -2 0.71632394E-02 0.65918599E+03</pdfrwt>
<totfact> 0.57250898E+02</totfact>
</mgrwt>
<rwgt>
<wgt id='morphing_basis_vector_1'> +2.1925622e-04 </wgt>
<wgt id='morphing_basis_vector_2'> +1.4005171e-04 </wgt>
<wgt id='morphing_basis_vector_3'> +1.7877846e-04 </wgt>
<wgt id='morphing_basis_vector_4'> +7.9753983e-05 </wgt>
<wgt id='morphing_basis_vector_5'> +1.3004720e-04 </wgt>
</rwgt>
</event>
<event>
 4      1 +5.9529000e-06 6.31384800e+02 7.81860800e-03 9.14602300e-02
        2 -1    0    0  501    0 +0.0000000000e+00 +0.0000000000e+00 +1.5350120978e+03 1.5350120978e+03 0.0000000000e+00 0.0000e+00 -1.0000e+00
       -2 -1    0    0    0  501 -0.0000000000e+00 -0.0000000000e+00 -6.4925668053e+01 6.4925668053e+01 0.0000000000e+00 0.0000e+00 1.0000e+00
      -13  1    1    2    0    0 +2.2598768931e+02 +2.2040865528e+02 +7.2653448169e+02 7.9215072059e+02 0.0000000000e+00 0.0000e+00 1.0000e+00
       13  1    1    2    0    0 -2.2598768931e+02 -2.2040865528e+02 +7.4355194805e+02 8.0778704526e+02 0.0000000000e+00 0.0000e+00 -1.0000e+00
<mgrwt>
<rscale>  0 0.63138478E+03</rscale>
<asrwt>0</asrwt>
<pdfrwt beam="1">  1        2 0.23615568E+00 0.63138478E+03</pdfrwt>
<pdfrwt beam="2">  1       -2 0.99885655E-02 0.63138478E+03</pdfrwt>
<totfact> 0.94227536E+02</totfact>
</mgrwt>
<rwgt>
<wgt id='morphing_basis_vector_1'> +1.9149326e-04 </wgt>
<wgt id='morphing_basis_vector_2'> +1.2532688e-04 </wgt>
<wgt id='morphing_basis_vector_3'> +1.5155526e-04 </wgt>
<wgt id='morphing_basis_vector_4'> +6.3654164e-05 </wgt>
<wgt id='morphing_basis_vector_5'> +1.0514324e-04 </wgt>
</rwgt>
</event>
<event>
 4      1 +5.9529000e-06 7.42340800e+02 7.81860800e-03 8.97785200e-02
        2 -1    0    0  501    0 +0.0000000000e+00 +0.0000000000e+00 +1.4978615716e+03 1.4978615716e+03 0.0000000000e+00 0.0000e+00 -1.0000e+00
       -2 -1    0    0    0  501 -0.0000000000e+00 -0.0000000000e+00 -9.1976100455e+01 9.1976100455e+01 0.0000000000e+00 0.0000e+00 1.0000e+00
      -13  1    1    2    0    0 -4.8563564327e+01 -3.6669042072e+02 +6.3703048226e+02 7.3663296136e+02 0.0000000000e+00 0.0000e+00 1.0000e+00
       13  1    1    2    0    0 +4.8563564327e+01 +3.6669042072e+02 +7.6885498891e+02 8.5320471072e+02 0.0000000000e+00 0.0000e+00 -1.0000e+00
<mgrwt>
<rscale>  0 0.74234080E+03</rscale>
<asrwt>0</asrwt>
<pdfrwt beam="1">  1        2 0.23044022E+00 0.74234080E+03</pdfrwt>
<pdfrwt beam="2">  1       -2 0.14150170E-01 0.74234080E+03</pdfrwt>
<totfact> 0.56467825E+02</totfact>
</mgrwt>
<rwgt>
<wgt id='morphing_basis_vector_1'> +3.2969099e-04 </wgt>
<wgt id='morphing_basis_vector_2'> +2.1618170e-04 </wgt>
<wgt id='morphing_basis_vector_3'> +2.8445198e-04 </wgt>
<wgt id='morphing_basis_vector_4'> +1.3771338e-04 </wgt>
<wgt id='morphing_basis_vector_5'> +2.2912414e-04 </wgt>
</rwgt>
</event>
<event>
 4      1 +5.9529000e-06 6.54672300e+02 7.81860800e-03 9.10787300e-02
        2 -1    0    0  501    0 +0.0000000000e+00 +0.0000000000e+00 +1.3516662402e+02 1.3516662402e+02 0.0000000000e+00 0.0000e+00 -1.0000e+00
       -2 -1    0    0    0  501 -0.0000000000e+00 -0.0000000000e+00 -7.9271754207e+02 7.9271754207e+02 0.0000000000e+00 0.0000e+00 1.0000e+00
      -13  1    1    2    0    0 -2.8516939575e+02 -5.5220486471e-01 -5.5655112549e+02 6.2535673378e+02 0.0000000000e+00 0.0000e+00 1.0000e+00
       13  1    1    2    0    0 +2.8516939575e+02 +5.5220486471e-01 -1.0099979256e+02 3.0252743231e+02 0.0000000000e+00 0.0000e+00 -1.0000e+00
<mgrwt>
<rscale>  0 0.65467230E+03</rscale>
<asrwt>0</asrwt>
<pdfrwt beam="1">  1        2 0.20794865E-01 0.65467230E+03</pdfrwt>
<pdfrwt beam="2">  1       -2 0.12195654E+00 0.65467230E+03</pdfrwt>
<totfact> 0.17405075E+02</totfact>
</mgrwt>
<rwgt>
<wgt id='morphing_basis_vector_1'> +2.1008696e-04 </wgt>
<wgt id='morphing_basis_vector_2'> +1.2380001e-04 </wgt>
<wgt id='morphing_basis_vector_3'> +1.7320134e-04 </wgt>
<wgt id='morphing_basis_vector_4'> +8.1109747e-05 </wgt>
<wgt id='morphing_basis_vector_5'> +1.2580563e-04 </wgt>
</rwgt>
</event>
<event>
 4      1 +5.9529000e-06 6.57656100e+02 7.81860800e-03 9.10310500e-02
        2 -1    0    0  501    0 +0.0000000000e+00 +0.0000000000e+00 +3.6314661835e+02 3.6314661835e+02 0.0000000000e+00 0.0000e+00 1.0000e+00
       -2 -1    0    0    0  501 -0.0000000000e+00 -0.0000000000e+00 -2.9775270088e+02 2.9775270088e+02 0.0000000000e+00 0.0000e+00 -1.0000e+00
      -13  1    1    2    0    0 -2.4142812192e+02 -5.2911968385e+01 +2.5065515761e+02 3.5201594067e+02 0.0000000000e+00 0.0000e+00 1.0000e+00
       13  1    1    2    0    0 +2.4142812192e+02 +5.2911968385e+01 -1.8526124014e+02 3.0888337856e+02 0.0000000000e+00 0.0000e+00 -1.0000e+00
<mgrwt>
<rscale>  0 0.65765610E+03</rscale>
<asrwt>0</asrwt>
<pdfrwt beam="1">  1        2 0.55868710E-01 0.65765610E+03</pdfrwt>
<pdfrwt beam="2">  1       -2 0.45808108E-01 0.65765610E+03</pdfrwt>
<totfact> 0.48682129E+02</totfact>
</mgrwt>
<rwgt>
<wgt id='morphing_basis_vector_1'> +2.6733791e-04 </wgt>
<wgt id='morphing_basis_vector_2'> +2.9278719e-04 </wgt>
<wgt id='morphing_basis_vector_3'> +1.8814965e-04 </wgt>
<wgt id='morphing_basis_vector_4'> +3.1981386e-05 </wgt>
<wgt id='morphing_basis_vector_5'> +1.2786946e-04 </wgt>
</rwgt>
</event>
<event>
 4      1 +5.9529000e-06 6.27011400e+02 7.81860800e-03 9.15338000e-02
        2 -1    0    0  501    0 +0.0000000000e+00 +0.0000000000e+00 +1.8653535584e+02 1.8653535584e+02 0.0000000000e+00 0.0000e+00 1.0000e+00
       -2 -1    0    0    0  501 -0.0000000000e+00 -0.0000000000e+00 -5.2690190988e+02 5.2690190988e+02 0.0000000000e+00 0.0000e+00 -1.0000e+00
      -13  1    1    2    0    0 -1.7745426540e+02 +2.4938511856e+02 -2.4737935387e+02 3.9354732674e+02 0.0000000000e+00 0.0000e+00 -1.0000e+00
       13  1    1    2    0    0 +1.7745426540e+02 -2.4938511856e+02 -9.2987200167e+01 3.1988993898e+02 0.0000000000e+00 0.0000e+00 1.0000e+00
<mgrwt>
<rscale>  0 0.62701144E+03</rscale>
<asrwt>0</asrwt>
<pdfrwt beam="1">  1        2 0.28697747E-01 0.62701144E+03</pdfrwt>
<pdfrwt beam="2">  1       -2 0.81061831E-01 0.62701144E+03</pdfrwt>
<totfact> 0.31970211E+02</totfact>
</mgrwt>
<rwgt>
<wgt id='morphing_basis_vector_1'> +1.8388838e-04 </wgt>
<wgt id='morphing_basis_vector_2'> +1.1226674e-04 </wgt>
<wgt id='morphing_basis_vector_3'> +1.4714531e-04 </wgt>
<wgt id='morphing_basis_vector_4'> +6.4365046e-05 </wgt>
<wgt id='morphing_basis_vector_5'> +1.0157473e-04 </wgt>
</rwgt>
</event>
<event>
 4      1 +5.9529000e-06 7.12613100e+02 7.81860800e-03 9.01974100e-02
        2 -1    0    0  501    0 +0.0000000000e+00 +0.0000000000e+00 +3.1184889871e+02 3.1184889871e+02 0.0000000000e+00 0.0000e+00 -1.0000e+00
       -2 -1    0    0    0  501 -0.0000000000e+00 -0.0000000000e+00 -4.0710212115e+02 4.0710212115e+02 0.0000000000e+00 0.0000e+00 1.0000e+00
      -13  1    1    2    0    0 -2.1322847931e+02 +8.2233064299e+01 -3.2341785688e+02 3.9601486260e+02 0.0000000000e+00 0.0000e+00 1.0000e+00
       13  1    1    2    0    0 +2.1322847931e+02 -8.2233064299e+01 +2.2816463445e+02 3.2293615726e+02 0.0000000000e+00 0.0000e+00 -1.0000e+00
<mgrwt>
<rscale>  0 0.71261307E+03</rscale>
<asrwt>0</asrwt>
<pdfrwt beam="1">  1        2 0.47976754E-01 0.71261307E+03</pdfrwt>
<pdfrwt beam="2">  1       -2 0.62631095E-01 0.71261307E+03</pdfrwt>
<totfact> 0.30960387E+02</totfact>
</mgrwt>
<rwgt>
<wgt id='morphing_basis_vector_1'> +2.7921613e-04 </wgt>
<wgt id='morphing_basis_vector_2'> +1.6479903e-04 </wgt>
<wgt id='morphing_basis_vector_3'> +2.3965053e-04 </wgt>
<wgt id='morphing_basis_vector_4'> +1.2175872e-04 </wgt>
<wgt id='morphing_basis_vector_5'> +1.8931609e-04 </wgt>
</rwgt>
</event>
<event>
 4      1 +5.9529000e-06 7.39048400e+02 7.81860800e-03 8.98238800e-02
        2 -1    0    0  501    0 +0.0000000000e+00 +0.0000000000e+00 +2.2349666397e+02 2.2349666397e+02 0.0000000000e+00 0.0000e+00 -1.0000e+00
       -2 -1    0    0    0  501 -0.0000000000e+00 -0.0000000000e+00 -6.1096266855e+02 6.1096266855e+02 0.0000000000e+00 0.0000e+00 1.0000e+00
      -13  1    1    2    0    0 -1.8884267331e+02 +2.6443694607e+01 -5.5111991432e+02 5.8317577471e+02 0.0000000000e+00 0.0000e+00 1.0000e+00
       13  1    1    2    0    0 +1.8884267331e+02 -2.6443694607e+01 +1.6365390974e+02 2.5128355781e+02 0.0000000000e+00 0.0000e+00 -1.0000e+00
<mgrwt>
<rscale>  0 0.73904836E+03</rscale>
<asrwt>0</asrwt>
<pdfrwt beam="1">  1        2 0.34384102E-01 0.73904836E+03</pdfrwt>
<pdfrwt beam="2">  1       -2 0.93994256E-01 0.73904836E+03</pdfrwt>
<totfact> 0.18360452E+02</totfact>
</mgrwt>
<rwgt>
<wgt id='morphing_basis_vector_1'> +3.1655688e-04 </wgt>
<wgt id='morphing_basis_vector_2'> +1.8786976e-04 </wgt>
<wgt id='morphing_basis_vector_3'> +2.7586425e-04 </wgt>
<wgt id='morphing_basis_vector_4'> +1.4416439e-04 </wgt>
<wgt id='morphing_basis_vector_5'> +2.2472831e-04 </wgt>
</rwgt>
</event>
<event>
 4      1 +5.9529000e-06 6.28119900e+02 7.81860800e-03 9.15150900e-02
        2 -1    0    0  501    0 +0.0000000000e+00 +0.0000000000e+00 +1.7511496571e+02 1.7511496571e+02 0.0000000000e+00 0.0000e+00 1.0000e+00
       -2 -1    0    0    0  501 -0.0000000000e+00 -0.0000000000e+00 -5.6325081720e+02 5.6325081720e+02 0.0000000000e+00 0.0000e+00 -1.0000e+00
      -13  1    1    2    0    0 -1.2596729327e+02 +2.0151605239e+01 -5.3142254816e+02 5.4651968936e+02 0.0000000000e+00 0.0000e+00 -1.0000e+00
       13  1    1    2    0    0 +1.2596729327e+02 -2.0151605239e+01 +1.4328669667e+02 1.9184609355e+02 0.0000000000e+00 0.0000e+00 1.0000e+00
<mgrwt>
<rscale>  0 0.62811989E+03</rscale>
<asrwt>0</asrwt>
<pdfrwt beam="1">  1        2 0.26940764E-01 0.62811989E+03</pdfrwt>
<pdfrwt beam="2">  1       -2 0.86653973E-01 0.62811989E+03</pdfrwt>
<totfact> 0.29545646E+02</totfact>
</mgrwt>
<rwgt>
<wgt id='morphing_basis_vector_1'> +1.8223722e-04 </wgt>
<wgt id='morphing_basis_vector_2'> +1.0451508e-04 </wgt>
<wgt id='morphing_basis_vector_3'> +1.4781181e-04 </wgt>
<wgt id='morphing_basis_vector_4'> +6.7251088e-05 </wgt>
<wgt id='morphing_basis_vector_5'> +1.0248831e-04 </wgt>
</rwgt>
</event>
<event>
 4      1 +5.9529000e-06 6.94452500e+02 7.81860800e-03 9.04639700e-02
        2 -1    0    0  501    0 +0.0000000000e+00 +0.0000000000e+00 +3.4679933019e+02 3.4679933019e+02 0.0000000000e+00 0.0000e+00 1.0000e+00
       -2 -1    0    0    0  501 -0.0000000000e+00 -0.0000000000e+00 -3.4765365659e+02 3.4765365659e+02 0.0000000000e+00 0.0000e+00 -1.0000e+00
      -13  1    1    2    0    0 +1.7672302850e+02 +8.4551205912e+01 -2.8710859685e+02 3.4757917316e+02 0.0000000000e+00 0.0000e+00 -1.0000e+00
       13  1    1    2    0    0 -1.7672302850e+02 -8.4551205912e+01 +2.8625427046e+02 3.4687381363e+02 0.0000000000e+00 0.0000e+00 1.0000e+00
<mgrwt>
<rscale>  0 0.69445246E+03</rscale>
<asrwt>0</asrwt>
<pdfrwt beam="1">  1        2 0.53353743E-01 0.69445246E+03</pdfrwt>
<pdfrwt beam="2">  1       -2 0.53485178E-01 0.69445246E+03</pdfrwt>
<totfact> 0.37863570E+02</totfact>
</mgrwt>
<rwgt>
<wgt id='morphing_basis_vector_1'> +2.5548777e-04 </wgt>
<wgt id='morphing_basis_vector_2'> +1.4979903e-04 </wgt>
<wgt id='morphing_basis_vector_3'> +2.1691909e-04 </wgt>
<wgt id='morphing_basis_vector_4'> +1.0808127e-04 </wgt>
<wgt id='morphing_basis_vector_5'> +1.6742370e-04 </wgt>
</rwgt>
</event>
<event>
 4      1 +5.9529000e-06 6.31381800e+02 7.81860800e-03 9.14602800e-02
        2 -1    0    0  501    0 +0.0000000000e+00 +0.0000000000e+00 +1.3532019596e+02 1.3532019596e+02 0.0000000000e+00 0.0000e+00 -1.0000e+00
       -2 -1    0    0    0  501 -0.0000000000e+00 -0.0000000000e+00 -7.3648100463e+02 7.3648100463e+02 0.0000000000e+00 0.0000e+00 1.0000e+00
      -13  1    1    2    0    0 +2.3668092167e+02 +3.6137100344e+01 -5.8468970422e+02 6.3181152168e+02 0.0000000000e+00 0.0000e+00 1.0000e+00
       13  1    1    2    0    0 -2.3668092167e+02 -3.6137100344e+01 -1.6471104451e+01 2.3998967891e+02 0.0000000000e+00 0.0000e+00 -1.0000e+00
<mgrwt>
<rscale>  0 0.63138183E+03</rscale>
<asrwt>0</asrwt>
<pdfrwt beam="1">  1        2 0.20818492E-01 0.63138183E+03</pdfrwt>
<pdfrwt beam="2">  1       -2 0.11330477E+00 0.63138183E+03</pdfrwt>
<totfact> 0.21017225E+02</totfact>
</mgrwt>
<rwgt>
<wgt id='morphing_basis_vector_1'> +1.8568561e-04 </wgt>
<wgt id='morphing_basis_vector_2'> +1.0735558e-04 </wgt>
<wgt id='morphing_basis_vector_3'> +1.5078150e-04 </wgt>
<wgt id='morphing_basis_vector_4'> +6.8687640e-05 </wgt>
<wgt id='morphing_basis_vector_5'> +1.0517383e-04 </wgt>
</rwgt>
</event>
<event>
 4      1 +5.9529000e-06 7.39112700e+02 7.81860800e-03 8.98229900e-02
        2 -1    0    0  501    0 +0.0000000000e+00 +0.0000000000e+00 +7.5403175688e+02 7.5403175688e+02 0.0000000000e+00 0.0000e+00 -1.0000e+00
       -2 -1    0    0    0  501 -0.0000000000e+00 -0.0000000000e+00 -1.8112222347e+02 1.8112222347e+02 0.0000000000e+00 0.0000e+00 1.0000e+00
      -13  1    1    2    0    0 +1.9172111459e+02 +1.5346963518e+02 -6.2948144612e+01 2.5351998662e+02 0.0000000000e+00 0.0000e+00 1.0000e+00
       13  1    1    2    0    0 -1.9172111459e+02 -1.5346963518e+02 +6.3585767803e+02 6.8163399373e+02 0.0000000000e+00 0.0000e+00 -1.0000e+00
<mgrwt>
<rscale>  0 0.73911273E+03</rscale>
<asrwt>0</asrwt>
<pdfrwt beam="1">  1        2 0.11600488E+00 0.73911273E+03</pdfrwt>
<pdfrwt beam="2">  1       -2 0.27864958E-01 0.73911273E+03</pdfrwt>
<totfact> 0.51362010E+02</totfact>
</mgrwt>
<rwgt>
<wgt id='morphing_basis_vector_1'> +3.1683507e-04 </wgt>
<wgt id='morphing_basis_vector_2'> +1.8849056e-04 </wgt>
<wgt id='morphing_basis_vector_3'> +2.7604021e-04 </wgt>
<wgt id='morphing_basis_vector_4'> +1.4401390e-04 </wgt>
<wgt id='morphing_basis_vector_5'> +2.2481289e-04 </wgt>
</rwgt>
</event>
<event>
 4      1 +5.9529000e-06 6.97755100e+02 7.81860800e-03 9.04148700e-02
        2 -1    0    0  501    0 +0.0000000000e+00 +0.0000000000e+00 +1.1212073927e+03 1.1212073927e+03 0.0000000000e+00 0.0000e+00 1.0000e+00
       -2 -1    0    0    0  501 -0.0000000000e+00 -0.0000000000e+00 -1.0855755122e+02 1.0855755122e+02 0.0000000000e+00 0.0000e+00 -1.0000e+00
      -13  1    1    2    0    0 -8.9930003806e+01 -1.5485029565e+02 -2.1382347774e+01 1.8034196529e+02 0.0000000000e+00 0.0000e+00 -1.0000e+00
       13  1    1    2    0    0 +8.9930003806e+01 +1.5485029565e+02 +1.0340321893e+03 1.0494229787e+03 0.0000000000e+00 0.0000e+00 1.0000e+00
<mgrwt>
<rscale>  0 0.69775505E+03</rscale>
<asrwt>0</asrwt>
<pdfrwt beam="1">  1        2 0.17249344E+00 0.69775505E+03</pdfrwt>
<pdfrwt beam="2">  1       -2 0.16701162E-01 0.69775505E+03</pdfrwt>
<totfact> 0.70711398E+02</totfact>
</mgrwt>
<rwgt>
<wgt id='morphing_basis_vector_1'> +2.5963146e-04 </wgt>
<wgt id='morphing_basis_vector_2'> +1.5229532e-04 </wgt>
<wgt id='morphing_basis_vector_3'> +2.2090639e-04 </wgt>
<wgt id='morphing_basis_vector_4'> +1.1053163e-04 </wgt>
<wgt id='morphing_basis_vector_5'> +1.7126503e-04 </wgt>
</rwgt>
</event>
<event>
 4      1 +5.9529000e-06 7.20633500e+02 7.81860800e-03 9.00823000e-02
        2 -1    0    0  501    0 +0.0000000000e+00 +0.0000000000e+00 +1.8749267081e+03 1.8749267081e+03 0.0000000000e+00 0.0000e+00 -1.0000e+00
       -2 -1    0    0    0  501 -0.0000000000e+00 -0.0000000000e+00 -6.9244390119e+01 6.9244390119e+01 0.0000000000e+00 0.0000e+00 1.0000e+00
      -13  1    1    2    0    0 +3.5547017158e+02 -3.0602739628e+01 +1.0386106318e+03 1.0981837802e+03 0.0000000000e+00 0.0000e+00 1.0000e+00
       13  1    1    2    0    0 -3.5547017158e+02 +3.0602739628e+01 +7.6707168622e+02 8.4598731808e+02 0.0000000000e+00 0.0000e+00 -1.0000e+00
<mgrwt>
<rscale>  0 0.72063349E+03</rscale>
<asrwt>0</asrwt>
<pdfrwt beam="1">  1        2 0.28845022E+00 0.72063349E+03</pdfrwt>
<pdfrwt beam="2">  1       -2 0.10652985E-01 0.72063349E+03</pdfrwt>
<totfact> 0.55219154E+02</totfact>
</mgrwt>
<rwgt>
<wgt id='morphing_basis_vector_1'> +3.0653062e-04 </wgt>
<wgt id='morphing_basis_vector_2'> +2.2195205e-04 </wgt>
<wgt id='morphing_basis_vector_3'> +2.5686909e-04 </wgt>
<wgt id='morphing_basis_vector_4'> +1.1025640e-04 </wgt>
<wgt id='morphing_basis_vector_5'> +1.9906133e-04 </wgt>
</rwgt>
</event>
<event>
 4      1 +5.9529000e-06 6.28024300e+02 7.81860800e-03 9.15167000e-02
        2 -1    0    0  501    0 +0.0000000000e+00 +0.0000000000e+00 +1.9132312399e+03 1.9132312399e+03 0.0000000000e+00 0.0000e+00 1.0000e+00
       -2 -1    0    0    0  501 -0.0000000000e+00 -0.0000000000e+00 -5.1537746530e+01 5.1537746530e+01 0.0000000000e+00 0.0000e+00 -1.0000e+00
      -13  1    1    2    0    0 -1.7731651566e+02 -2.5902561241e+02 +9.5668515246e+02 1.0068673674e+03 0.0000000000e+00 0.0000e+00 -1.0000e+00
       13  1    1    2    0    0 +1.7731651566e+02 +2.5902561241e+02 +9.0500834094e+02 9.5790161906e+02 0.0000000000e+00 0.0000e+00 1.0000e+00
<mgrwt>
<rscale>  0 0.62802429E+03</rscale>
<asrwt>0</asrwt>
<pdfrwt beam="1">  1        2 0.29434321E+00 0.62802429E+03</pdfrwt>
<pdfrwt beam="2">  1       -2 0.79288855E-02 0.62802429E+03</pdfrwt>
<totfact> 0.83992019E+02</totfact>
</mgrwt>
<rwgt>
<wgt id='morphing_basis_vector_1'> +1.8899212e-04 </wgt>
<wgt id='morphing_basis_vector_2'> +1.2565784e-04 </wgt>
<wgt id='morphing_basis_vector_3'> +1.4855612e-04 </wgt>
<wgt id='morphing_basis_vector_4'> +6.1331484e-05 </wgt>
<wgt id='morphing_basis_vector_5'> +1.0237899e-04 </wgt>
</rwgt>
</event>
<event>
 4      1 +5.9529000e-06 6.37097400e+02 7.81860800e-03 9.13650600e-02
        2 -1    0    0  501    0 +0.0000000000e+00 +0.0000000000e+00 +1.8329693526e+03 1.8329693526e+03 0.0000000000e+00 0.0000e+00 -1.0000e+00
       -2 -1    0    0    0  501 -0.0000000000e+00 -0.0000000000e+00 -5.5360045463e+01 5.5360045463e+01 0.0000000000e+00 0.0000e+00 1.0000e+00
      -13  1    1    2    0    0 -2.5727862475e+02 -5.5716815587e+01 +3.5713472468e+02 4.4366864422e+02 0.0000000000e+00 0.0000e+00 1.0000e+00
       13  1    1    2    0    0 +2.5727862475e+02 +5.5716815587e+01 +1.4204745825e+03 1.4446607539e+03 0.0000000000e+00 0.0000e+00 -1.0000e+00
<mgrwt>
<rscale>  0 0.63709738E+03</rscale>
<asrwt>0</asrwt>
<pdfrwt beam="1">  1        2 0.28199524E+00 0.63709738E+03</pdfrwt>
<pdfrwt beam="2">  1       -2 0.85169315E-02 0.63709738E+03</pdfrwt>
<totfact> 0.83104660E+02</totfact>
</mgrwt>
<rwgt>
<wgt id='morphing_basis_vector_1'> +1.9156406e-04 </wgt>
<wgt id='morphing_basis_vector_2'> +1.1156815e-04 </wgt>
<wgt id='morphing_basis_vector_3'> +1.5606964e-04 </wgt>
<wgt id='morphing_basis_vector_4'> +7.1503325e-05 </wgt>
<wgt id='morphing_basis_vector_5'> +1.0999826e-04 </wgt>
</rwgt>
</event>
<event>
 4      1 +5.9529000e-06 6.27835300e+02 7.81860800e-03 9.15198900e-02
        2 -1    0    0  501    0 +0.0000000000e+00 +0.0000000000e+00 +7.2397790873e+02 7.2397790873e+02 0.0000000000e+00 0.0000e+00 1.0000e+00
       -2 -1    0    0    0  501 -0.0000000000e+00 -0.0000000000e+00 -1.3611504449e+02 1.3611504449e+02 0.0000000000e+00 0.0000e+00 -1.0000e+00
      -13  1    1    2    0    0 +1.4130573471e+02 -2.1064557284e+02 +4.0566142163e+01 2.5687444387e+02 0.0000000000e+00 0.0000e+00 -1.0000e+00
       13  1    1    2    0    0 -1.4130573471e+02 +2.1064557284e+02 +5.4729672208e+02 6.0321850935e+02 0.0000000000e+00 0.0000e+00 1.0000e+00
<mgrwt>
<rscale>  0 0.62783528E+03</rscale>
<asrwt>0</asrwt>
<pdfrwt beam="1">  1        2 0.11138121E+00 0.62783528E+03</pdfrwt>
<pdfrwt beam="2">  1       -2 0.20940777E-01 0.62783528E+03</pdfrwt>
<totfact> 0.88169911E+02</totfact>
</mgrwt>
<rwgt>
<wgt id='morphing_basis_vector_1'> +1.8240735e-04 </wgt>
<wgt id='morphing_basis_vector_2'> +1.0572053e-04 </wgt>
<wgt id='morphing_basis_vector_3'> +1.4761166e-04 </wgt>
<wgt id='morphing_basis_vector_4'> +6.6725110e-05 </wgt>
<wgt id='morphing_basis_vector_5'> +1.0225416e-04 </wgt>
</rwgt>
</event>
<event>
 4      1 +5.9529000e-06 6.78102800e+02 7.81860800e-03 9.07113000e-02
        2 -1    0    0  501    0 +0.0000000000e+00 +0.0000000000e+00 +2.1487579528e+03 2.1487579528e+03 0.0000000000e+00 0.0000e+00 1.0000e+00
       -2 -1    0    0    0  501 -0.0000000000e+00 -0.0000000000e+00 -5.3498750036e+01 5.3498750036e+01 0.0000000000e+00 0.0000e+00 -1.0000e+00
      -13  1    1    2    0    0 +3.1787927894e+02 -9.8148919847e+01 +8.3527499920e+02 8.9909108033e+02 0.0000000000e+00 0.0000e+00 -1.0000e+00
       13  1    1    2    0    0 -3.1787927894e+02 +9.8148919847e+01 +1.2599842035e+03 1.3031656225e+03 0.0000000000e+00 0.0000e+00 1.0000e+00
<mgrwt>
<rscale>  0 0.67810284E+03</rscale>
<asrwt>0</asrwt>
<pdfrwt beam="1">  1        2 0.33057808E+00 0.67810284E+03</pdfrwt>
<pdfrwt beam="2">  1       -2 0.82305786E-02 0.67810284E+03</pdfrwt>
<totfact> 0.58557336E+02</totfact>
</mgrwt>
<rwgt>
<wgt id='morphing_basis_vector_1'> +2.3944120e-04 </wgt>
<wgt id='morphing_basis_vector_2'> +1.4934251e-04 </wgt>
<wgt id='morphing_basis_vector_3'> +1.9903715e-04 </wgt>
<wgt id='morphing_basis_vector_4'> +9.2842850e-05 </wgt>
<wgt id='morphing_basis_vector_5'> +1.4922503e-04 </wgt>
</rwgt>
</event>
<event>
 4      1 +5.9529000e-06 6.89512800e+02 7.81860800e-03 9.05379400e-02
        2 -1    0    0  501    0 +0.0000000000e+00 +0.0000000000e+00 +1.5201119093e+03 1.5201119093e+03 0.0000000000e+00 0.0000e+00 -1.0000e+00
       -2 -1    0    0    0  501 -0.0000000000e+00 -0.0000000000e+00 -7.8189629291e+01 7.8189629291e+01 0.0000000000e+00 0.0000e+00 1.0000e+00
      -13  1    1    2    0    0 +2.5530742995e+02 +2.1528530212e+02 +9.1938303026e+02 9.7815888353e+02 0.0000000000e+00 0.0000e+00 1.0000e+00
       13  1    1    2    0    0 -2.5530742995e+02 -2.1528530212e+02 +5.2253924973e+02 6.2014265505e+02 0.0000000000e+00 0.0000e+00 -1.0000e+00
<mgrwt>
<rscale>  0 0.68951283E+03</rscale>
<asrwt>0</asrwt>
<pdfrwt beam="1">  1        2 0.23386335E+00 0.68951283E+03</pdfrwt>
<pdfrwt beam="2">  1       -2 0.12029175E-01 0.68951283E+03</pdfrwt>
<totfact> 0.71403082E+02</totfact>
</mgrwt>
<rwgt>
<wgt id='morphing_basis_vector_1'> +2.6965270e-04 </wgt>
<wgt id='morphing_basis_vector_2'> +2.0863393e-04 </wgt>
<wgt id='morphing_basis_vector_3'> +2.1750792e-04 </wgt>
<wgt id='morphing_basis_vector_4'> +8.3709224e-05 </wgt>
<wgt id='morphing_basis_vector_5'> +1.6130383e-04 </wgt>
</rwgt>
</event>
<event>
 4      1 +5.9529000e-06 6.57521600e+02 7.81860800e-03 9.10331900e-02
        2 -1    0    0  501    0 +0.0000000000e+00 +0.0000000000e+00 +2.1334680521e+02 2.1334680521e+02 0.0000000000e+00 0.0000e+00 1.0000e+00
       -2 -1    0    0    0  501 -0.0000000000e+00 -0.0000000000e+00 -5.0661013179e+02 5.0661013179e+02 0.0000000000e+00 0.0000e+00 -1.0000e+00
      -13  1    1    2    0    0 -2.1631667004e+02 +1.5397982924e+02 -3.5889768136e+02 4.4644174898e+02 0.0000000000e+00 0.0000e+00 -1.0000e+00
       13  1    1    2    0    0 +2.1631667004e+02 -1.5397982924e+02 +6.5634354769e+01 2.7351518802e+02 0.0000000000e+00 0.0000e+00 1.0000e+00
<mgrwt>
<rscale>  0 0.65752157E+03</rscale>
<asrwt>0</asrwt>
<pdfrwt beam="1">  1        2 0.32822586E-01 0.65752157E+03</pdfrwt>
<pdfrwt beam="2">  1       -2 0.77940019E-01 0.65752157E+03</pdfrwt>
<totfact> 0.29882440E+02</totfact>
</mgrwt>
<rwgt>
<wgt id='morphing_basis_vector_1'> +2.1277595e-04 </wgt>
<wgt id='morphing_basis_vector_2'> +1.2450629e-04 </wgt>
<wgt id='morphing_basis_vector_3'> +1.7601704e-04 </wgt>
<wgt id='morphing_basis_vector_4'> +8.3167538e-05 </wgt>
<wgt id='morphing_basis_vector_5'> +1.2851658e-04 </wgt>
</rwgt>
</event>
<event>
 4      1 +5.9529000e-06 6.72051500e+02 7.81860800e-03 9.08046900e-02
        2 -1    0    0  501    0 +0.0000000000e+00 +0.0000000000e+00 +6.1319065190e+02 6.1319065190e+02 0.0000000000e+00 0.0000e+00 -1.0000e+00
       -2 -1    0    0    0  501 -0.0000000000e+00 -0.0000000000e+00 -1.8414062124e+02 1.8414062124e+02 0.0000000000e+00 0.0000e+00 1.0000e+00
      -13  1    1    2    0    0 +1.5154713582e+02 +2.6579888238e+02 +4.9712828892e+01 3.0997894381e+02 0.0000000000e+00 0.0000e+00 1.0000e+00
       13  1    1    2    0    0 -1.5154713582e+02 -2.6579888238e+02 +3.7933720177e+02 4.8735232933e+02 0.0000000000e+00 0.0000e+00 -1.0000e+00
<mgrwt>
<rscale>  0 0.67205151E+03</rscale>
<asrwt>0</asrwt>
<pdfrwt beam="1">  1        2 0.94337023E-01 0.67205151E+03</pdfrwt>
<pdfrwt beam="2">  1       -2 0.28329327E-01 0.67205151E+03</pdfrwt>
<totfact> 0.64257941E+02</totfact>
</mgrwt>
<rwgt>
<wgt id='morphing_basis_vector_1'> +2.2994224e-04 </wgt>
<wgt id='morphing_basis_vector_2'> +1.3740854e-04 </wgt>
<wgt id='morphing_basis_vector_3'> +1.9162662e-04 </wgt>
<wgt id='morphing_basis_vector_4'> +9.1321885e-05 </wgt>
<wgt id='morphing_basis_vector_5'> +1.4293916e-04 </wgt>
</rwgt>
</event>
<event>
 4      1 +5.9529000e-06 6.79852400e+02 7.81860800e-03 9.06844800e-02
        2 -1    0    0  501    0 +0.0000000000e+00 +0.0000000000e+00 +1.6356512513e+03 1.6356512513e+03 0.0000000000e+00 0.0000e+00 -1.0000e+00
       -2 -1    0    0    0  501 -0.0000000000e+00 -0.0000000000e+00 -7.0644539083e+01 7.0644539083e+01 0.0000000000e+00 0.0000e+00 1.0000e+00
      -13  1    1    2    0    0 +2.5665397353e+01 +3.2876042932e+02 +5.7542259375e+02 6.6321436497e+02 0.0000000000e+00 0.0000e+00 1.0000e+00
       13  1    1    2    0    0 -2.5665397353e+01 -3.2876042932e+02 +9.8958411846e+02 1.0430814254e+03 0.0000000000e+00 0.0000e+00 -1.0000e+00
<mgrwt>
<rscale>  0 0.67985242E+03</rscale>
<asrwt>0</asrwt>
<pdfrwt beam="1">  1        2 0.25163863E+00 0.67985242E+03</pdfrwt>
<pdfrwt beam="2">  1       -2 0.10868392E-01 0.67985242E+03</pdfrwt>
<totfact> 0.72503255E+02</totfact>
</mgrwt>
<rwgt>
<wgt id='morphing_basis_vector_1'> +2.4082278e-04 </wgt>
<wgt id='morphing_basis_vector_2'> +1.4850205e-04 </wgt>
<wgt id='morphing_basis_vector_3'> +2.0082543e-04 </wgt>
<wgt id='morphing_basis_vector_4'> +9.4689311e-05 </wgt>
<wgt id='morphing_basis_vector_5'> +1.5110674e-04 </wgt>
</rwgt>
</event>
<event>
 4      1 +5.9529000e-06 6.52547000e+02 7.81860800e-03 9.11128500e-02
        2 -1    0    0  501    0 +0.0000000000e+00 +0.0000000000e+00 +1.6810109275e+03 1.6810109275e+03 0.0000000000e+00 0.0000e+00 -1.0000e+00
       -2 -1    0    0    0  501 -0.0000000000e+00 -0.0000000000e+00 -6.3327609218e+01 6.3327609218e+01 0.0000000000e+00 0.0000e+00 1.0000e+00
      -13  1    1    2    0    0 -2.7024231918e+02 -1.6302108273e+02 +1.0300435053e+03 1.0773098010e+03 0.0000000000e+00 0.0000e+00 1.0000e+00
       13  1    1    2    0    0 +2.7024231918e+02 +1.6302108273e+02 +5.8763981296e+02 6.6702873571e+02 0.0000000000e+00 0.0000e+00 -1.0000e+00
<mgrwt>
<rscale>  0 0.65254702E+03</rscale>
<asrwt>0</asrwt>
<pdfrwt beam="1">  1        2 0.25861703E+00 0.65254702E+03</pdfrwt>
<pdfrwt beam="2">  1       -2 0.97427104E-02 0.65254702E+03</pdfrwt>
<totfact> 0.81460632E+02</totfact>
</mgrwt>
<rwgt>
<wgt id='morphing_basis_vector_1'> +2.2403442e-04 </wgt>
<wgt id='morphing_basis_vector_2'> +1.7254110e-04 </wgt>
<wgt id='morphing_basis_vector_3'> +1.7436885e-04 </wgt>
<wgt id='morphing_basis_vector_4'> +6.4811723e-05 </wgt>
<wgt id='morphing_basis_vector_5'> +1.2360922e-04 </wgt>
</rwgt>
</event>
<event>
 4      1 +5.9529000e-06 7.40779600e+02 7.81860800e-03 8.97999900e-02
        2 -1    0    0  501    0 +0.0000000000e+00 +0.0000000000e+00 +2.2818582172e+02 2.2818582172e+02 0.0000000000e+00 0.0000e+00 -1.0000e+00
       -2 -1    0    0    0  501 -0.0000000000e+00 -0.0000000000e+00 -6.0121445876e+02 6.0121445876e+02 0.0000000000e+00 0.0000e+00 1.0000e+00
      -13  1    1    2    0    0 +5.8714754531e+01 -7.8376573901e+01 -5.8645685769e+02 5.9457712339e+02 0.0000000000e+00 0.0000e+00 1.0000e+00
       13  1    1    2    0    0 -5.8714754531e+01 +7.8376573901e+01 +2.1342822065e+02 2.3482315709e+02 0.0000000000e+00 0.0000e+00 -1.0000e+00
<mgrwt>
<rscale>  0 0.74077963E+03</rscale>
<asrwt>0</asrwt>
<pdfrwt beam="1">  1        2 0.35105511E-01 0.74077963E+03</pdfrwt>
<pdfrwt beam="2">  1       -2 0.92494531E-01 0.74077963E+03</pdfrwt>
<totfact> 0.18618159E+02</totfact>
</mgrwt>
<rwgt>
<wgt id='morphing_basis_vector_1'> +3.1907247e-04 </wgt>
<wgt id='morphing_basis_vector_2'> +1.8927878e-04 </wgt>
<wgt id='morphing_basis_vector_3'> +2.7834633e-04 </wgt>
<wgt id='morphing_basis_vector_4'> +1.4579867e-04 </wgt>
<wgt id='morphing_basis_vector_5'> +2.2720295e-04 </wgt>
</rwgt>
</event>
<event>
 4      1 +5.9529000e-06 6.24191200e+02 7.81860800e-03 9.15815800e-02
        2 -1    0    0  501    0 +0.0000000000e+00 +0.0000000000e+00 +2.2083322053e+03 2.2083322053e+03 0.0000000000e+00 0.0000e+00 -1.0000e+00
       -2 -1    0    0    0  501 -0.0000000000e+00 -0.0000000000e+00 -4.4107335490e+01 4.4107335490e+01 0.0000000000e+00 0.0000e+00 1.0000e+00
      -13  1    1    2    0    0 -1.9998827555e+02 +2.1183703080e+02 +6.7812283828e+02 7.3805204544e+02 0.0000000000e+00 0.0000e+00 1.0000e+00
       13  1    1    2    0    0 +1.9998827555e+02 -2.1183703080e+02 +1.4861020315e+03 1.5143874954e+03 0.0000000000e+00 0.0000e+00 -1.0000e+00
<mgrwt>
<rscale>  0 0.62419115E+03</rscale>
<asrwt>0</asrwt>
<pdfrwt beam="1">  1        2 0.33974333E+00 0.62419115E+03</pdfrwt>
<pdfrwt beam="2">  1       -2 0.67857456E-02 0.62419115E+03</pdfrwt>
<totfact> 0.73379709E+02</totfact>
</mgrwt>
<rwgt>
<wgt id='morphing_basis_vector_1'> +1.7995374e-04 </wgt>
<wgt id='morphing_basis_vector_2'> +1.0674423e-04 </wgt>
<wgt id='morphing_basis_vector_3'> +1.4449882e-04 </wgt>
<wgt id='morphing_basis_vector_4'> +6.4020269e-05 </wgt>
<wgt id='morphing_basis_vector_5'> +9.9311237e-05 </wgt>
</rwgt>
</event>
<event>
 4      1 +5.9529000e-06 6.58308400e+02 7.81860800e-03 9.10206600e-02
        2 -1    0    0  501    0 +0.0000000000e+00 +0.0000000000e+00 +4.4663954577e+02 4.4663954577e+02 0.0000000000e+00 0.0000e+00 -1.0000e+00
       -2 -1    0    0    0  501 -0.0000000000e+00 -0.0000000000e+00 -2.4257252746e+02 2.4257252746e+02 0.0000000000e+00 0.0000e+00 1.0000e+00
      -13  1    1    2    0    0 +2.7384557567e+02 +1.1134667330e+01 +2.9287365018e+02 4.0111139986e+02 0.0000000000e+00 0.0000e+00 1.0000e+00
       13  1    1    2    0    0 -2.7384557567e+02 -1.1134667330e+01 -8.8806631872e+01 2.8810067337e+02 0.0000000000e+00 0.0000e+00 -1.0000e+00
<mgrwt>
<rscale>  0 0.65830839E+03</rscale>
<asrwt>0</asrwt>
<pdfrwt beam="1">  1        2 0.68713776E-01 0.65830839E+03</pdfrwt>
<pdfrwt beam="2">  1       -2 0.37318850E-01 0.65830839E+03</pdfrwt>
<totfact> 0.56567201E+02</totfact>
</mgrwt>
<rwgt>
<wgt id='morphing_basis_vector_1'> +2.5636271e-04 </wgt>
<wgt id='morphing_basis_vector_2'> +2.5710517e-04 </wgt>
<wgt id='morphing_basis_vector_3'> +1.8633237e-04 </wgt>
<wgt id='morphing_basis_vector_4'> +4.3305952e-05 </wgt>
<wgt id='morphing_basis_vector_5'> +1.2865278e-04 </wgt>
</rwgt>
</event>
<event>
 4      1 +5.9529000e-06 6.32912400e+02 7.81860800e-03 9.14346700e-02
        2 -1    0    0  501    0 +0.0000000000e+00 +0.0000000000e+00 +5.9530285895e+02 5.9530285895e+02 0.0000000000e+00 0.0000e+00 1.0000e+00
       -2 -1    0    0    0  501 -0.0000000000e+00 -0.0000000000e+00 -1.6822450940e+02 1.6822450940e+02 0.0000000000e+00 0.0000e+00 -1.0000e+00
      -13  1    1    2    0    0 -1.6678149733e+02 +7.3872535280e+01 -9.8422264988e+01 2.0726833228e+02 0.0000000000e+00 0.0000e+00 -1.0000e+00
       13  1    1    2    0    0 +1.6678149733e+02 -7.3872535280e+01 +5.2550061454e+02 5.5625903607e+02 0.0000000000e+00 0.0000e+00 1.0000e+00
<mgrwt>
<rscale>  0 0.63291242E+03</rscale>
<asrwt>0</asrwt>
<pdfrwt beam="1">  1        2 0.91585054E-01 0.63291242E+03</pdfrwt>
<pdfrwt beam="2">  1       -2 0.25880694E-01 0.63291242E+03</pdfrwt>
<totfact> 0.77874514E+02</totfact>
</mgrwt>
<rwgt>
<wgt id='morphing_basis_vector_1'> +1.8694047e-04 </wgt>
<wgt id='morphing_basis_vector_2'> +1.0752747e-04 </wgt>
<wgt id='morphing_basis_vector_3'> +1.5214064e-04 </wgt>
<wgt id='morphing_basis_vector_4'> +6.9700064e-05 </wgt>
<wgt id='morphing_basis_vector_5'> +1.0645292e-04 </wgt>
</rwgt>
</event>
<event>
 4      1 +5.9529000e-06 6.55820300e+02 7.81860800e-03 9.10603500e-02
        2 -1    0    0  501    0 +0.0000000000e+00 +0.0000000000e+00 +5.3714224707e+02 5.3714224707e+02 0.0000000000e+00 0.0000e+00 -1.0000e+00
       -2 -1    0    0    0  501 -0.0000000000e+00 -0.0000000000e+00 -2.0017987390e+02 2.0017987390e+02 0.0000000000e+00 0.0000e+00 1.0000e+00
      -13  1    1    2    0    0 -3.6969804966e+01 -3.1146227343e+02 +6.0940613654e+01 3.1951411963e+02 0.0000000000e+00 0.0000e+00 1.0000e+00
       13  1    1    2    0    0 +3.6969804966e+01 +3.1146227343e+02 +2.7602175952e+02 4.1780800134e+02 0.0000000000e+00 0.0000e+00 -1.0000e+00
<mgrwt>
<rscale>  0 0.65582030E+03</rscale>
<asrwt>0</asrwt>
<pdfrwt beam="1">  1        2 0.82637268E-01 0.65582030E+03</pdfrwt>
<pdfrwt beam="2">  1       -2 0.30796904E-01 0.65582030E+03</pdfrwt>
<totfact> 0.64763917E+02</totfact>
</mgrwt>
<rwgt>
<wgt id='morphing_basis_vector_1'> +2.1273810e-04 </wgt>
<wgt id='morphing_basis_vector_2'> +1.2894109e-04 </wgt>
<wgt id='morphing_basis_vector_3'> +1.7466940e-04 </wgt>
<wgt id='morphing_basis_vector_4'> +8.0461953e-05 </wgt>
<wgt id='morphing_basis_vector_5'> +1.2687145e-04 </wgt>
</rwgt>
</event>
<event>
 4      1 +5.9529000e-06 6.78647500e+02 7.81860800e-03 9.07029400e-02
        2 -1    0    0  501    0 +0.0000000000e+00 +0.0000000000e+00 +4.4014177828e+02 4.4014177828e+02 0.0000000000e+00 0.0000e+00 -1.0000e+00
       -2 -1    0    0    0  501 -0.0000000000e+00 -0.0000000000e+00 -2.6159891103e+02 2.6159891103e+02 0.0000000000e+00 0.0000e+00 1.0000e+00
      -13  1    1    2    0    0 +1.3998830471e+02 -5.7575869910e+01 -2.2475479519e+02 2.7097310607e+02 0.0000000000e+00 0.0000e+00 1.0000e+00
       13  1    1    2    0    0 -1.3998830471e+02 +5.7575869910e+01 +4.0329766243e+02 4.3076758324e+02 0.0000000000e+00 0.0000e+00 -1.0000e+00
<mgrwt>
<rscale>  0 0.67864751E+03</rscale>
<asrwt>0</asrwt>
<pdfrwt beam="1">  1        2 0.67714120E-01 0.67864751E+03</pdfrwt>
<pdfrwt beam="2">  1       -2 0.40245986E-01 0.67864751E+03</pdfrwt>
<totfact> 0.50003346E+02</totfact>
</mgrwt>
<rwgt>
<wgt id='morphing_basis_vector_1'> +2.3617745e-04 </wgt>
<wgt id='morphing_basis_vector_2'> +1.3768254e-04 </wgt>
<wgt id='morphing_basis_vector_3'> +1.9853746e-04 </wgt>
<wgt id='morphing_basis_vector_4'> +9.7100567e-05 </wgt>
<wgt id='morphing_basis_vector_5'> +1.4988591e-04 </wgt>
</rwgt>
</event>
<event>
 4      1 +5.9529000e-06 6.87873500e+02 7.81860800e-03 9.05626300e-02
        2 -1    0    0  501    0 +0.0000000000e+00 +0.0000000000e+00 +6.4492480311e+02 6.4492480311e+02 0.0000000000e+00 0.0000e+00 -1.0000e+00
       -2 -1    0    0    0  501 -0.0000000000e+00 -0.0000000000e+00 -1.8342059702e+02 1.8342059702e+02 0.0000000000e+00 0.0000e+00 1.0000e+00
      -13  1    1    2    0    0 +8.3108626086e+01 -1.4058205927e+02 -1.3375255097e+02 2.1109264319e+02 0.0000000000e+00 0.0000e+00 1.0000e+00
       13  1    1    2    0    0 -8.3108626086e+01 +1.4058205927e+02 +5.9525675706e+02 6.1725275694e+02 0.0000000000e+00 0.0000e+00 -1.0000e+00
<mgrwt>
<rscale>  0 0.68787351E+03</rscale>
<asrwt>0</asrwt>
<pdfrwt beam="1">  1        2 0.99219199E-01 0.68787351E+03</pdfrwt>
<pdfrwt beam="2">  1       -2 0.28218554E-01 0.68787351E+03</pdfrwt>
<totfact> 0.60912739E+02</totfact>
</mgrwt>
<rwgt>
<wgt id='morphing_basis_vector_1'> +2.4727891e-04 </wgt>
<wgt id='morphing_basis_vector_2'> +1.4458200e-04 </wgt>
<wgt id='morphing_basis_vector_3'> +2.0910592e-04 </wgt>
<wgt id='morphing_basis_vector_4'> +1.0343176e-04 </wgt>
<wgt id='morphing_basis_vector_5'> +1.5995697e-04 </wgt>
</rwgt>
</event>
<event>
 4      1 +5.9529000e-06 7.18763900e+02 7.81860800e-03 9.01089900e-02
        2 -1    0    0  501    0 +0.0000000000e+00 +0.0000000000e+00 +9.5997302948e+02 9.5997302948e+02 0.0000000000e+00 0.0000e+00 -1.0000e+00
       -2 -1    0    0    0  501 -0.0000000000e+00 -0.0000000000e+00 -1.3454065795e+02 1.3454065795e+02 0.0000000000e+00 0.0000e+00 1.0000e+00
      -13  1    1    2    0    0 -3.4452970357e+02 +4.4248968535e+01 +5.5308170649e+02 6.5311412626e+02 0.0000000000e+00 0.0000e+00 1.0000e+00
       13  1    1    2    0    0 +3.4452970357e+02 -4.4248968535e+01 +2.7235066503e+02 4.4139956117e+02 0.0000000000e+00 0.0000e+00 -1.0000e+00
<mgrwt>
<rscale>  0 0.71876395E+03</rscale>
<asrwt>0</asrwt>
<pdfrwt beam="1">  1        2 0.14768815E+00 0.71876395E+03</pdfrwt>
<pdfrwt beam="2">  1       -2 0.20698563E-01 0.71876395E+03</pdfrwt>
<totfact> 0.62102651E+02</totfact>
</mgrwt>
<rwgt>
<wgt id='morphing_basis_vector_1'> +3.1168021e-04 </wgt>
<wgt id='morphing_basis_vector_2'> +2.4416221e-04 </wgt>
<wgt id='morphing_basis_vector_3'> +2.5738651e-04 </wgt>
<wgt id='morphing_basis_vector_4'> +1.0031876e-04 </wgt>
<wgt id='morphing_basis_vector_5'> +1.9638421e-04 </wgt>
</rwgt>
</event>
<event>
 4      1 +5.9529000e-06 6.58841700e+02 7.81860800e-03 9.10121800e-02
        2 -1    0    0  501    0 +0.0000000000e+00 +0.0000000000e+00 +1.5663901812e+03 1.5663901812e+03 0.0000000000e+00 0.0000e+00 1.0000e+00
       -2 -1    0    0    0  501 -0.0000000000e+00 -0.0000000000e+00 -6.9279104633e+01 6.9279104633e+01 0.0000000000e+00 0.0000e+00 -1.0000e+00
      -13  1    1    2    0    0 +7.7252749045e+01 +2.6713208474e+02 +3.1009949656e+02 4.1652039050e+02 0.0000000000e+00 0.0000e+00 -1.0000e+00
       13  1    1    2    0    0 -7.7252749045e+01 -2.6713208474e+02 +1.1870115800e+03 1.2191488954e+03 0.0000000000e+00 0.0000e+00 1.0000e+00
<mgrwt>
<rscale>  0 0.65884174E+03</rscale>
<asrwt>0</asrwt>
<pdfrwt beam="1">  1        2 0.24098308E+00 0.65884174E+03</pdfrwt>
<pdfrwt beam="2">  1       -2 0.10658325E-01 0.65884174E+03</pdfrwt>
<totfact> 0.81672499E+02</totfact>
</mgrwt>
<rwgt>
<wgt id='morphing_basis_vector_1'> +2.1441146e-04 </wgt>
<wgt id='morphing_basis_vector_2'> +1.2600825e-04 </wgt>
<wgt id='morphing_basis_vector_3'> +1.7741661e-04 </wgt>
<wgt id='morphing_basis_vector_4'> +8.3774837e-05 </wgt>
<wgt id='morphing_basis_vector_5'> +1.2978117e-04 </wgt>
</rwgt>
</event>
<event>
 4      1 +5.9529000e-06 6.38818100e+02 7.81860800e-03 9.13366000e-02
        2 -1    0    0  501    0 +0.0000000000e+00 +0.0000000000e+00 +9.0549200845e+02 9.0549200845e+02 0.0000000000e+00 0.0000e+00 -1.0000e+00
       -2 -1    0    0    0  501 -0.0000000000e+00 -0.0000000000e+00 -1.1267040492e+02 1.1267040492e+02 0.0000000000e+00 0.0000e+00 1.0000e+00
      -13  1    1    2    0    0 -2.0501423736e+02 -8.7229948569e+01 +3.1630061717e+01 2.2503413575e+02 0.0000000000e+00 0.0000e+00 1.0000e+00
       13  1    1    2    0    0 +2.0501423736e+02 +8.7229948569e+01 +7.6119154181e+02 7.9312827762e+02 0.0000000000e+00 0.0000e+00 -1.0000e+00
<mgrwt>
<rscale>  0 0.63881813E+03</rscale>
<asrwt>0</asrwt>
<pdfrwt beam="1">  1        2 0.13930646E+00 0.63881813E+03</pdfrwt>
<pdfrwt beam="2">  1       -2 0.17333909E-01 0.63881813E+03</pdfrwt>
<totfact> 0.90460782E+02</totfact>
</mgrwt>
<rwgt>
<wgt id='morphing_basis_vector_1'> +1.9292245e-04 </wgt>
<wgt id='morphing_basis_vector_2'> +1.1149853e-04 </wgt>
<wgt id='morphing_basis_vector_3'> +1.5762195e-04 </wgt>
<wgt id='morphing_basis_vector_4'> +7.2757574e-05 </wgt>
<wgt id='morphing_basis_vector_5'> +1.1148399e-04 </wgt>
</rwgt>
</event>
<event>
 4      1 +5.9529000e-06 6.64274400e+02 7.81860800e-03 9.09262400e-02
        2 -1    0    0  501    0 +0.0000000000e+00 +0.0000000000e+00 +9.5446748364e+02 9.5446748364e+02 0.0000000000e+00 0.0000e+00 1.0000e+00
       -2 -1    0    0    0  501 -0.0000000000e+00 -0.0000000000e+00 -1.1557764467e+02 1.1557764467e+02 0.0000000000e+00 0.0000e+00 -1.0000e+00
      -13  1    1    2    0    0 -3.2283243961e+01 -1.6797515651e+02 -3.9172475038e+01 1.7547747390e+02 0.0000000000e+00 0.0000e+00 -1.0000e+00
       13  1    1    2    0    0 +3.2283243961e+01 +1.6797515651e+02 +8.7806231401e+02 8.9456765441e+02 0.0000000000e+00 0.0000e+00 1.0000e+00
<mgrwt>
<rscale>  0 0.66427435E+03</rscale>
<asrwt>0</asrwt>
<pdfrwt beam="1">  1        2 0.14684115E+00 0.66427435E+03</pdfrwt>
<pdfrwt beam="2">  1       -2 0.17781177E-01 0.66427435E+03</pdfrwt>
<totfact> 0.80685101E+02</totfact>
</mgrwt>
<rwgt>
<wgt id='morphing_basis_vector_1'> +2.1971267e-04 </wgt>
<wgt id='morphing_basis_vector_2'> +1.2757403e-04 </wgt>
<wgt id='morphing_basis_vector_3'> +1.8291422e-04 </wgt>
<wgt id='morphing_basis_vector_4'> +8.7767639e-05 </wgt>
<wgt id='morphing_basis_vector_5'> +1.3510082e-04 </wgt>
</rwgt>
</event>
<event>
 4      1 +5.9529000e-06 6.34784000e+02 7.81860800e-03 9.14034700e-02
        2 -1    0    0  501    0 +0.0000000000e+00 +0.0000000000e+00 +1.7633196383e+03 1.7633196383e+03 0.0000000000e+00 0.0000e+00 -1.0000e+00
       -2 -1    0    0    0  501 -0.0000000000e+00 -0.0000000000e+00 -5.7129560094e+01 5.7129560094e+01 0.0000000000e+00 0.0000e+00 1.0000e+00
      -13  1    1    2    0    0 -5.4606488254e+01 +2.5938686089e+02 +3.5246234001e+02 4.4101373367e+02 0.0000000000e+00 0.0000e+00 1.0000e+00
       13  1    1    2    0    0 +5.4606488254e+01 -2.5938686089e+02 +1.3537277382e+03 1.3794354647e+03 0.0000000000e+00 0.0000e+00 -1.0000e+00
<mgrwt>
<rscale>  0 0.63478398E+03</rscale>
<asrwt>0</asrwt>
<pdfrwt beam="1">  1        2 0.27127990E+00 0.63478398E+03</pdfrwt>
<pdfrwt beam="2">  1       -2 0.87891644E-02 0.63478398E+03</pdfrwt>
<totfact> 0.86380225E+02</totfact>
</mgrwt>
<rwgt>
<wgt id='morphing_basis_vector_1'> +1.8930625e-04 </wgt>
<wgt id='morphing_basis_vector_2'> +1.1027894e-04 </wgt>
<wgt id='morphing_basis_vector_3'> +1.5393105e-04 </wgt>
<wgt id='morphing_basis_vector_4'> +7.0232284e-05 </wgt>
<wgt id='morphing_basis_vector_5'> +1.0802643e-04 </wgt>
</rwgt>
</event>
<event>
 4      1 +5.9529000e-06 7.21023100e+02 7.81860800e-03 9.00767500e-02
        2 -1    0    0  501    0 +0.0000000000e+00 +0.0000000000e+00 +1.6952916683e+02 1.6952916683e+02 0.0000000000e+00 0.0000e+00 -1.0000e+00
       -2 -1    0    0    0  501 -0.0000000000e+00 -0.0000000000e+00 -7.6664432416e+02 7.6664432416e+02 0.0000000000e+00 0.0000e+00 1.0000e+00
      -13  1    1    2    0    0 +5.9357886420e+01 +2.3235427199e+02 -6.4805700248e+02 6.9100632765e+02 0.0000000000e+00 0.0000e+00 1.0000e+00
       13  1    1    2    0    0 -5.9357886420e+01 -2.3235427199e+02 +5.0941845152e+01 2.4516716334e+02 0.0000000000e+00 0.0000e+00 -1.0000e+00
<mgrwt>
<rscale>  0 0.72102309E+03</rscale>
<asrwt>0</asrwt>
<pdfrwt beam="1">  1        2 0.26081411E-01 0.72102309E+03</pdfrwt>
<pdfrwt beam="2">  1       -2 0.11794528E+00 0.72102309E+03</pdfrwt>
<totfact> 0.14475703E+02</totfact>
</mgrwt>
<rwgt>
<wgt id='morphing_basis_vector_1'> +2.9077851e-04 </wgt>
<wgt id='morphing_basis_vector_2'> +1.7213433e-04 </wgt>
<wgt id='morphing_basis_vector_3'> +2.5078297e-04 </wgt>
<wgt id='morphing_basis_vector_4'> +1.2849871e-04 </wgt>
<wgt id='morphing_basis_vector_5'> +2.0011229e-04 </wgt>
</rwgt>
</event>
<event>
 4      1 +5.9529000e-06 6.54019100e+02 7.81860800e-03 9.10892000e-02
        2 -1    0    0  501    0 +0.0000000000e+00 +0.0000000000e+00 +4.5551105825e+02 4.5551105825e+02 0.0000000000e+00 0.0000e+00 -1.0000e+00
       -2 -1    0    0    0  501 -0.0000000000e+00 -0.0000000000e+00 -2.3475883447e+02 2.3475883447e+02 0.0000000000e+00 0.0000e+00 1.0000e+00
      -13  1    1    2    0    0 +4.0397930623e+01 +2.7056546818e+02 -7.8712182453e+01 2.8466343818e+02 0.0000000000e+00 0.0000e+00 1.0000e+00
       13  1    1    2    0    0 -4.0397930623e+01 -2.7056546818e+02 +2.9946440623e+02 4.0560645455e+02 0.0000000000e+00 0.0000e+00 -1.0000e+00
<mgrwt>
<rscale>  0 0.65401910E+03</rscale>
<asrwt>0</asrwt>
<pdfrwt beam="1">  1        2 0.70078624E-01 0.65401910E+03</pdfrwt>
<pdfrwt beam="2">  1       -2 0.36116744E-01 0.65401910E+03</pdfrwt>
<totfact> 0.58737441E+02</totfact>
</mgrwt>
<rwgt>
<wgt id='morphing_basis_vector_1'> +2.0914202e-04 </wgt>
<wgt id='morphing_basis_vector_2'> +1.2261038e-04 </wgt>
<wgt id='morphing_basis_vector_3'> +1.7249049e-04 </wgt>
<wgt id='morphing_basis_vector_4'> +8.0953307e-05 </wgt>
<wgt id='morphing_basis_vector_5'> +1.2519431e-04 </wgt>
</rwgt>
</event>
<event>
 4      1 +5.9529000e-06 6.40076900e+02 7.81860800e-03 9.13158400e-02
        2 -1    0    0  501    0 +0.0000000000e+00 +0.0000000000e+00 +5.7818528130e+02 5.7818528130e+02 0.0000000000e+00 0.0000e+00 1.0000e+00
       -2 -1    0    0    0  501 -0.0000000000e+00 -0.0000000000e+00 -1.7714840542e+02 1.7714840542e+02 0.0000000000e+00 0.0000e+00 -1.0000e+00
      -13  1    1    2    0    0 +1.0408252546e+02 +2.5157147385e+02 +3.9904775932e+02 4.8307400342e+02 0.0000000000e+00 0.0000e+00 1.0000e+00
       13  1    1    2    0    0 -1.0408252546e+02 -2.5157147385e+02 +1.9891165570e+00 2.7225968329e+02 0.0000000000e+00 0.0000e+00 -1.0000e+00
<mgrwt>
<rscale>  0 0.64007687E+03</rscale>
<asrwt>0</asrwt>
<pdfrwt beam="1">  1        2 0.88951581E-01 0.64007687E+03</pdfrwt>
<pdfrwt beam="2">  1       -2 0.27253601E-01 0.64007687E+03</pdfrwt>
<totfact> 0.73689412E+02</totfact>
</mgrwt>
<rwgt>
<wgt id='morphing_basis_vector_1'> +2.3052270e-04 </wgt>
<wgt id='morphing_basis_vector_2'> +2.2469312e-04 </wgt>
<wgt id='morphing_basis_vector_3'> +1.6471169e-04 </wgt>
<wgt id='morphing_basis_vector_4'> +4.1009549e-05 </wgt>
<wgt id='morphing_basis_vector_5'> +1.1226639e-04 </wgt>
</rwgt>
</event>
<event>
 4      1 +5.9529000e-06 7.18595300e+02 7.81860800e-03 9.01114100e-02
        2 -1    0    0  501    0 +0.0000000000e+00 +0.0000000000e+00 +1.1720002756e+02 1.1720002756e+02 0.0000000000e+00 0.0000e+00 1.0000e+00
       -2 -1    0    0    0  501 -0.0000000000e+00 -0.0000000000e+00 -1.1014912432e+03 1.1014912432e+03 0.0000000000e+00 0.0000e+00 -1.0000e+00
      -13  1    1    2    0    0 -2.6055603538e+02 -1.2043316620e+02 -8.5864510664e+02 9.0535352998e+02 0.0000000000e+00 0.0000e+00 -1.0000e+00
       13  1    1    2    0    0 +2.6055603538e+02 +1.2043316620e+02 -1.2564610901e+02 3.1333774079e+02 0.0000000000e+00 0.0000e+00 1.0000e+00
<mgrwt>
<rscale>  0 0.71859531E+03</rscale>
<asrwt>0</asrwt>
<pdfrwt beam="1">  1        2 0.18030774E-01 0.71859531E+03</pdfrwt>
<pdfrwt beam="2">  1       -2 0.16946018E+00 0.71859531E+03</pdfrwt>
<totfact> 0.82061706E+01</totfact>
</mgrwt>
<rwgt>
<wgt id='morphing_basis_vector_1'> +2.8786249e-04 </wgt>
<wgt id='morphing_basis_vector_2'> +1.7140681e-04 </wgt>
<wgt id='morphing_basis_vector_3'> +2.4771305e-04 </wgt>
<wgt id='morphing_basis_vector_4'> +1.2602231e-04 </wgt>
<wgt id='morphing_basis_vector_5'> +1.9693686e-04 </wgt>
</rwgt>
</event>
<event>
 4      1 +5.9529000e-06 6.76015100e+02 7.81860800e-03 9.07434000e-02
        2 -1    0    0  501    0 +0.0000000000e+00 +0.0000000000e+00 +3.2771408686e+02 3.2771408686e+02 0.0000000000e+00 0.0000e+00 1.0000e+00
       -2 -1    0    0    0  501 -0.0000000000e+00 -0.0000000000e+00 -3.4862433781e+02 3.4862433781e+02 0.0000000000e+00 0.0000e+00 -1.0000e+00
      -13  1    1    2    0    0 +9.9151511477e+01 +1.8943420010e+02 +2.5145771870e+02 3.3007169326e+02 0.0000000000e+00 0.0000e+00 1.0000e+00
       13  1    1    2    0    0 -9.9151511477e+01 -1.8943420010e+02 -2.7236796965e+02 3.4626673142e+02 0.0000000000e+00 0.0000e+00 -1.0000e+00
<mgrwt>
<rscale>  0 0.67601511E+03</rscale>
<asrwt>0</asrwt>
<pdfrwt beam="1">  1        2 0.50417552E-01 0.67601511E+03</pdfrwt>
<pdfrwt beam="2">  1       -2 0.53634514E-01 0.67601511E+03</pdfrwt>
<totfact> 0.40149502E+02</totfact>
</mgrwt>
<rwgt>
<wgt id='morphing_basis_vector_1'> +3.0634565e-04 </wgt>
<wgt id='morphing_basis_vector_2'> +3.6194228e-04 </wgt>
<wgt id='morphing_basis_vector_3'> +2.1595813e-04 </wgt>
<wgt id='morphing_basis_vector_4'> +2.2735921e-05 </wgt>
<wgt id='morphing_basis_vector_5'> +1.4562987e-04 </wgt>
</rwgt>
</event>
<event>
 4      1 +5.9529000e-06 7.29050600e+02 7.81860800e-03 8.99631700e-02
        2 -1    0    0  501    0 +0.0000000000e+00 +0.0000000000e+00 +7.0921969080e+02 7.0921969080e+02 0.0000000000e+00 0.0000e+00 -1.0000e+00
       -2 -1    0    0    0  501 -0.0000000000e+00 -0.0000000000e+00 -1.8735902813e+02 1.8735902813e+02 0.0000000000e+00 0.0000e+00 1.0000e+00
      -13  1    1    2    0    0 +1.7155685154e+02 +3.0900666359e+02 +1.5119727804e+02 3.8441837670e+02 0.0000000000e+00 0.0000e+00 1.0000e+00
       13  1    1    2    0    0 -1.7155685154e+02 -3.0900666359e+02 +3.7066338462e+02 5.1216034223e+02 0.0000000000e+00 0.0000e+00 -1.0000e+00
<mgrwt>
<rscale>  0 0.72905065E+03</rscale>
<asrwt>0</asrwt>
<pdfrwt beam="1">  1        2 0.10911072E+00 0.72905065E+03</pdfrwt>
<pdfrwt beam="2">  1       -2 0.28824466E-01 0.72905065E+03</pdfrwt>
<totfact> 0.52251075E+02</totfact>
</mgrwt>
<rwgt>
<wgt id='morphing_basis_vector_1'> +3.0600512e-04 </wgt>
<wgt id='morphing_basis_vector_2'> +1.9118875e-04 </wgt>
<wgt id='morphing_basis_vector_3'> +2.6342233e-04 </wgt>
<wgt id='morphing_basis_vector_4'> +1.3088286e-04 </wgt>
<wgt id='morphing_basis_vector_5'> +2.1068284e-04 </wgt>
</rwgt>
</event>
<event>
 4      1 +5.9529000e-06 6.39295600e+02 7.81860800e-03 9.13287200e-02
        2 -1    0    0  501    0 +0.0000000000e+00 +0.0000000000e+00 +2.0859783052e+03 2.0859783052e+03 0.0000000000e+00 0.0000e+00 -1.0000e+00
       -2 -1    0    0    0  501 -0.0000000000e+00 -0.0000000000e+00 -4.8981673621e+01 4.8981673621e+01 0.0000000000e+00 0.0000e+00 1.0000e+00
      -13  1    1    2    0    0 -1.3511894089e+02 +2.8219912174e+02 +1.2370089737e+03 1.2759642132e+03 0.0000000000e+00 0.0000e+00 1.0000e+00
       13  1    1    2    0    0 +1.3511894089e+02 -2.8219912174e+02 +7.9998765791e+02 8.5899576559e+02 0.0000000000e+00 0.0000e+00 -1.0000e+00
<mgrwt>
<rscale>  0 0.63929558E+03</rscale>
<asrwt>0</asrwt>
<pdfrwt beam="1">  1        2 0.32091967E+00 0.63929558E+03</pdfrwt>
<pdfrwt beam="2">  1       -2 0.75356437E-02 0.63929558E+03</pdfrwt>
<totfact> 0.72953098E+02</totfact>
</mgrwt>
<rwgt>
<wgt id='morphing_basis_vector_1'> +2.0676212e-04 </wgt>
<wgt id='morphing_basis_vector_2'> +1.5313097e-04 </wgt>
<wgt id='morphing_basis_vector_3'> +1.6020652e-04 </wgt>
<wgt id='morphing_basis_vector_4'> +6.1121241e-05 </wgt>
<wgt id='morphing_basis_vector_5'> +1.1178691e-04 </wgt>
</rwgt>
</event>
<event>
 4      1 +5.9529000e-06 7.06666900e+02 7.81860800e-03 9.02837700e-02
        2 -1    0    0  501    0 +0.0000000000e+00 +0.0000000000e+00 +2.1331101834e+03 2.1331101834e+03 0.0000000000e+00 0.0000e+00 -1.0000e+00
       -2 -1    0    0    0  501 -0.0000000000e+00 -0.0000000000e+00 -5.8527000884e+01 5.8527000884e+01 0.0000000000e+00 0.0000e+00 1.0000e+00
      -13  1    1    2    0    0 -5.8640978553e+01 +3.0804160651e+02 +5.3227100130e+02 6.1777084306e+02 0.0000000000e+00 0.0000e+00 1.0000e+00
       13  1    1    2    0    0 +5.8640978553e+01 -3.0804160651e+02 +1.5423121812e+03 1.5738663412e+03 0.0000000000e+00 0.0000e+00 -1.0000e+00
<mgrwt>
<rscale>  0 0.70666694E+03</rscale>
<asrwt>0</asrwt>
<pdfrwt beam="1">  1        2 0.32817074E+00 0.70666694E+03</pdfrwt>
<pdfrwt beam="2">  1       -2 0.90041556E-02 0.70666694E+03</pdfrwt>
<totfact> 0.51833908E+02</totfact>
</mgrwt>
<rwgt>
<wgt id='morphing_basis_vector_1'> +2.7250894e-04 </wgt>
<wgt id='morphing_basis_vector_2'> +1.6360236e-04 </wgt>
<wgt id='morphing_basis_vector_3'> +2.3247141e-04 </wgt>
<wgt id='morphing_basis_vector_4'> +1.1582031e-04 </wgt>
<wgt id='morphing_basis_vector_5'> +1.8190087e-04 </wgt>
</rwgt>
</event>
<event>
 4      1 +5.9529000e-06 7.06114000e+02 7.81860800e-03 9.02918400e-02
        2 -1    0    0  501    0 +0.0000000000e+00 +0.0000000000e+00 +8.7808391209e+02 8.7808391209e+02 0.0000000000e+00 0.0000e+00 -1.0000e+00
       -2 -1    0    0    0  501 -0.0000000000e+00 -0.0000000000e+00 -1.4195597530e+02 1.4195597530e+02 0.0000000000e+00 0.0000e+00 1.0000e+00
      -13  1    1    2    0    0 -3.4752721359e+02 +3.3971661729e+01 +2.9272349047e+02 4.5564929481e+02 0.0000000000e+00 0.0000e+00 1.0000e+00
       13  1    1    2    0    0 +3.4752721359e+02 -3.3971661729e+01 +4.4340444632e+02 5.6439059259e+02 0.0000000000e+00 0.0000e+00 -1.0000e+00
<mgrwt>
<rscale>  0 0.70611404E+03</rscale>
<asrwt>0</asrwt>
<pdfrwt beam="1">  1        2 0.13508983E+00 0.70611404E+03</pdfrwt>
<pdfrwt beam="2">  1       -2 0.21839381E-01 0.70611404E+03</pdfrwt>
<totfact> 0.64105205E+02</totfact>
</mgrwt>
<rwgt>
<wgt id='morphing_basis_vector_1'> +2.7579652e-04 </wgt>
<wgt id='morphing_basis_vector_2'> +1.7552054e-04 </wgt>
<wgt id='morphing_basis_vector_3'> +2.3323899e-04 </wgt>
<wgt id='morphing_basis_vector_4'> +1.1111673e-04 </wgt>
<wgt id='morphing_basis_vector_5'> +1.8110876e-04 </wgt>
</rwgt>
</event>
<event>
 4      1 +5.9529000e-06 6.60833400e+02 7.81860800e-03 9.09805700e-02
        2 -1    0    0  501    0 +0.0000000000e+00 +0.0000000000e+00 +2.4969282067e+02 2.4969282067e+02 0.0000000000e+00 0.0000e+00 1.0000e+00
       -2 -1    0    0    0  501 -0.0000000000e+00 -0.0000000000e+00 -4.3723799149e+02 4.3723799149e+02 0.0000000000e+00 0.0000e+00 -1.0000e+00
      -13  1    1    2    0    0 +2.9552398981e+02 +7.4414621223e+01 +3.8953951448e+01 3.0722853829e+02 0.0000000000e+00 0.0000e+00 -1.0000e+00
       13  1    1    2    0    0 -2.9552398981e+02 -7.4414621223e+01 -2.2649912226e+02 3.7970227388e+02 0.0000000000e+00 0.0000e+00 1.0000e+00
<mgrwt>
<rscale>  0 0.66083338E+03</rscale>
<asrwt>0</asrwt>
<pdfrwt beam="1">  1        2 0.38414280E-01 0.66083338E+03</pdfrwt>
<pdfrwt beam="2">  1       -2 0.67267383E-01 0.66083338E+03</pdfrwt>
<totfact> 0.34347082E+02</totfact>
</mgrwt>
<rwgt>
<wgt id='morphing_basis_vector_1'> +2.4318479e-04 </wgt>
<wgt id='morphing_basis_vector_2'> +2.0952978e-04 </wgt>
<wgt id='morphing_basis_vector_3'> +1.8560902e-04 </wgt>
<wgt id='morphing_basis_vector_4'> +5.9701098e-05 </wgt>
<wgt id='morphing_basis_vector_5'> +1.3130380e-04 </wgt>
</rwgt>
</event>
<event>
 4      1 +5.9529000e-06 7.18001300e+02 7.81860800e-03 9.01199100e-02
        2 -1    0    0  501    0 +0.0000000000e+00 +0.0000000000e+00 +8.0537257488e+02 8.0537257488e+02 0.0000000000e+00 0.0000e+00 1.0000e+00
       -2 -1    0    0    0  501 -0.0000000000e+00 -0.0000000000e+00 -1.6002711639e+02 1.6002711639e+02 0.0000000000e+00 0.0000e+00 -1.0000e+00
      -13  1    1    2    0    0 -2.4903600956e+02 +2.5781381313e+02 +2.9596509370e+02 4.6484646173e+02 0.0000000000e+00 0.0000e+00 -1.0000e+00
       13  1    1    2    0    0 +2.4903600956e+02 -2.5781381313e+02 +3.4938036479e+02 5.0055322953e+02 0.0000000000e+00 0.0000e+00 1.0000e+00
<mgrwt>
<rscale>  0 0.71800126E+03</rscale>
<asrwt>0</asrwt>
<pdfrwt beam="1">  1        2 0.12390347E+00 0.71800126E+03</pdfrwt>
<pdfrwt beam="2">  1       -2 0.24619557E-01 0.71800126E+03</pdfrwt>
<totfact> 0.58552746E+02</totfact>
</mgrwt>
<rwgt>
<wgt id='morphing_basis_vector_1'> +2.9450798e-04 </wgt>
<wgt id='morphing_basis_vector_2'> +1.9387436e-04 </wgt>
<wgt id='morphing_basis_vector_3'> +2.4989706e-04 </wgt>
<wgt id='morphing_basis_vector_4'> +1.1737580e-04 </wgt>
<wgt id='morphing_basis_vector_5'> +1.9592658e-04 </wgt>
</rwgt>
</event>
<event>
 4      1 +5.9529000e-06 6.41717200e+02 7.81860800e-03 9.12888600e-02
        2 -1    0    0  501    0 +0.0000000000e+00 +0.0000000000e+00 +1.0568383535e+02 1.0568383535e+02 0.0000000000e+00 0.0000e+00 1.0000e+00
       -2 -1    0    0    0  501 -0.0000000000e+00 -0.0000000000e+00 -9.7413436571e+02 9.7413436571e+02 0.0000000000e+00 0.0000e+00 -1.0000e+00
      -13  1    1    2    0    0 +9.5821792009e+01 -3.0378202865e+02 -4.9906755431e+02 5.9205891642e+02 0.0000000000e+00 0.0000e+00 -1.0000e+00
       13  1    1    2    0    0 -9.5821792009e+01 +3.0378202865e+02 -3.6938297605e+02 4.8775928463e+02 0.0000000000e+00 0.0000e+00 1.0000e+00
<mgrwt>
<rscale>  0 0.64171725E+03</rscale>
<asrwt>0</asrwt>
<pdfrwt beam="1">  1        2 0.16259052E-01 0.64171725E+03</pdfrwt>
<pdfrwt beam="2">  1       -2 0.14986683E+00 0.64171725E+03</pdfrwt>
<totfact> 0.13405750E+02</totfact>
</mgrwt>
<rwgt>
<wgt id='morphing_basis_vector_1'> +1.9995594e-04 </wgt>
<wgt id='morphing_basis_vector_2'> +1.2599310e-04 </wgt>
<wgt id='morphing_basis_vector_3'> +1.6104969e-04 </wgt>
<wgt id='morphing_basis_vector_4'> +7.0665577e-05 </wgt>
<wgt id='morphing_basis_vector_5'> +1.1397676e-04 </wgt>
</rwgt>
</event>
<event>
 4      1 +5.9529000e-06 6.89080500e+02 7.81860800e-03 9.05444400e-02
        2 -1    0    0  501    0 +0.0000000000e+00 +0.0000000000e+00 +5.5025570939e+02 5.5025570939e+02 0.0000000000e+00 0.0000e+00 -1.0000e+00
       -2 -1    0    0    0  501 -0.0000000000e+00 -0.0000000000e+00 -2.1573239687e+02 2.1573239687e+02 0.0000000000e+00 0.0000e+00 1.0000e+00
      -13  1    1    2    0    0 -1.8040101319e+02 -6.4087143953e+01 -1.5116397670e+02 2.4393080050e+02 0.0000000000e+00 0.0000e+00 1.0000e+00
       13  1    1    2    0    0 +1.8040101319e+02 +6.4087143953e+01 +4.8568728922e+02 5.2205730576e+02 0.0000000000e+00 0.0000e+00 -1.0000e+00
<mgrwt>
<rscale>  0 0.68908050E+03</rscale>
<asrwt>0</asrwt>
<pdfrwt beam="1">  1        2 0.84654724E-01 0.68908050E+03</pdfrwt>
<pdfrwt beam="2">  1       -2 0.33189600E-01 0.68908050E+03</pdfrwt>
<totfact> 0.55088800E+02</totfact>
</mgrwt>
<rwgt>
<wgt id='morphing_basis_vector_1'> +2.4880207e-04 </wgt>
<wgt id='morphing_basis_vector_2'> +1.4563014e-04 </wgt>
<wgt id='morphing_basis_vector_3'> +2.1053309e-04 </wgt>
<wgt id='morphing_basis_vector_4'> +1.0423990e-04 </wgt>
<wgt id='morphing_basis_vector_5'> +1.6130801e-04 </wgt>
</rwgt>
</event>
<event>
 4      1 +5.9529000e-06 6.58311300e+02 7.81860800e-03 9.10206200e-02
        2 -1    0    0  501    0 +0.0000000000e+00 +0.0000000000e+00 +2.6085277193e+03 2.6085277193e+03 0.0000000000e+00 0.0000e+00 1.0000e+00
       -2 -1    0    0    0  501 -0.0000000000e+00 -0.0000000000e+00 -4.1534326484e+01 4.1534326484e+01 0.0000000000e+00 0.0000e+00 -1.0000e+00
      -13  1    1    2    0    0 -2.1084042589e+02 +2.4461095270e+02 +1.0271469239e+03 1.0767167718e+03 0.0000000000e+00 0.0000e+00 -1.0000e+00
       13  1    1    2    0    0 +2.1084042589e+02 -2.4461095270e+02 +1.5398464689e+03 1.5733452740e+03 0.0000000000e+00 0.0000e+00 1.0000e+00
<mgrwt>
<rscale>  0 0.65831130E+03</rscale>
<asrwt>0</asrwt>
<pdfrwt beam="1">  1        2 0.40131183E+00 0.65831130E+03</pdfrwt>
<pdfrwt beam="2">  1       -2 0.63898984E-02 0.65831130E+03</pdfrwt>
<totfact> 0.47238186E+02</totfact>
</mgrwt>
<rwgt>
<wgt id='morphing_basis_vector_1'> +2.1663615e-04 </wgt>
<wgt id='morphing_basis_vector_2'> +1.3431394e-04 </wgt>
<wgt id='morphing_basis_vector_3'> +1.7749460e-04 </wgt>
<wgt id='morphing_basis_vector_4'> +8.0809235e-05 </wgt>
<wgt id='morphing_basis_vector_5'> +1.2923032e-04 </wgt>
</rwgt>
</event>
<event>
 4      1 +5.9529000e-06 6.81951100e+02 7.81860800e-03 9.06524300e-02
        2 -1    0    0  501    0 +0.0000000000e+00 +0.0000000000e+00 +6.6170800503e+02 6.6170800503e+02 0.0000000000e+00 0.0000e+00 1.0000e+00
       -2 -1    0    0    0  501 -0.0000000000e+00 -0.0000000000e+00 -1.7570334876e+02 1.7570334876e+02 0.0000000000e+00 0.0000e+00 -1.0000e+00
      -13  1    1    2    0    0 -1.1069555221e+02 +8.2267003692e+01 -1.3992352789e+02 1.9646872227e+02 0.0000000000e+00 0.0000e+00 -1.0000e+00
       13  1    1    2    0    0 +1.1069555221e+02 -8.2267003692e+01 +6.2592818416e+02 6.4094263152e+02 0.0000000000e+00 0.0000e+00 1.0000e+00
<mgrwt>
<rscale>  0 0.68195106E+03</rscale>
<asrwt>0</asrwt>
<pdfrwt beam="1">  1        2 0.10180123E+00 0.68195106E+03</pdfrwt>
<pdfrwt beam="2">  1       -2 0.27031285E-01 0.68195106E+03</pdfrwt>
<totfact> 0.63659134E+02</totfact>
</mgrwt>
<rwgt>
<wgt id='morphing_basis_vector_1'> +2.4009284e-04 </wgt>
<wgt id='morphing_basis_vector_2'> +1.4008146e-04 </wgt>
<wgt id='morphing_basis_vector_3'> +2.0226895e-04 </wgt>
<wgt id='morphing_basis_vector_4'> +9.9347612e-05 </wgt>
<wgt id='morphing_basis_vector_5'> +1.5343917e-04 </wgt>
</rwgt>
</event>
<event>
 4      1 +5.9529000e-06 6.78356400e+02 7.81860800e-03 9.07074100e-02
        2 -1    0    0  501    0 +0.0000000000e+00 +0.0000000000e+00 +2.4407724268e+02 2.4407724268e+02 0.0000000000e+00 0.0000e+00 1.0000e+00
       -2 -1    0    0    0  501 -0.0000000000e+00 -0.0000000000e+00 -4.7133379926e+02 4.7133379926e+02 0.0000000000e+00 0.0000e+00 -1.0000e+00
      -13  1    1    2    0    0 -2.5997290610e+02 -4.5355772221e+01 -3.3833697210e+02 4.2908619725e+02 0.0000000000e+00 0.0000e+00 -1.0000e+00
       13  1    1    2    0    0 +2.5997290610e+02 +4.5355772221e+01 +1.1108041552e+02 2.8632484470e+02 0.0000000000e+00 0.0000e+00 1.0000e+00
<mgrwt>
<rscale>  0 0.67835641E+03</rscale>
<asrwt>0</asrwt>
<pdfrwt beam="1">  1        2 0.37550346E-01 0.67835641E+03</pdfrwt>
<pdfrwt beam="2">  1       -2 0.72512891E-01 0.67835641E+03</pdfrwt>
<totfact> 0.30008573E+02</totfact>
</mgrwt>
<rwgt>
<wgt id='morphing_basis_vector_1'> +2.3627402e-04 </wgt>
<wgt id='morphing_basis_vector_2'> +1.3882826e-04 </wgt>
<wgt id='morphing_basis_vector_3'> +1.9833638e-04 </wgt>
<wgt id='morphing_basis_vector_4'> +9.6466456e-05 </wgt>
<wgt id='morphing_basis_vector_5'> +1.4956652e-04 </wgt>
</rwgt>
</event>
<event>
 4      1 +5.9529000e-06 6.91912200e+02 7.81860800e-03 9.05019300e-02
        2 -1    0    0  501    0 +0.0000000000e+00 +0.0000000000e+00 +3.0272554555e+02 3.0272554555e+02 0.0000000000e+00 0.0000e+00 -1.0000e+00
       -2 -1    0    0    0  501 -0.0000000000e+00 -0.0000000000e+00 -3.9536019483e+02 3.9536019483e+02 0.0000000000e+00 0.0000e+00 1.0000e+00
      -13  1    1    2    0    0 -1.0174330949e+02 +6.3015107263e+01 -3.7381021952e+02 3.9250055412e+02 0.0000000000e+00 0.0000e+00 1.0000e+00
       13  1    1    2    0    0 +1.0174330949e+02 -6.3015107263e+01 +2.8117557023e+02 3.0558518627e+02 0.0000000000e+00 0.0000e+00 -1.0000e+00
<mgrwt>
<rscale>  0 0.69191222E+03</rscale>
<asrwt>0</asrwt>
<pdfrwt beam="1">  1        2 0.46573161E-01 0.69191222E+03</pdfrwt>
<pdfrwt beam="2">  1       -2 0.60824646E-01 0.69191222E+03</pdfrwt>
<totfact> 0.34022122E+02</totfact>
</mgrwt>
<rwgt>
<wgt id='morphing_basis_vector_1'> +2.5223341e-04 </wgt>
<wgt id='morphing_basis_vector_2'> +1.4758362e-04 </wgt>
<wgt id='morphing_basis_vector_3'> +2.1385639e-04 </wgt>
<wgt id='morphing_basis_vector_4'> +1.0632998e-04 </wgt>
<wgt id='morphing_basis_vector_5'> +1.6451355e-04 </wgt>
</rwgt>
</event>
<event>
 4      1 +5.9529000e-06 7.16550300e+02 7.81860800e-03 9.01407100e-02
        2 -1    0    0  501    0 +0.0000000000e+00 +0.0000000000e+00 +2.0234134003e+03 2.0234134003e+03 0.0000000000e+00 0.0000e+00 -1.0000e+00
       -2 -1    0    0    0  501 -0.0000000000e+00 -0.0000000000e+00 -6.3437885936e+01 6.3437885936e+01 0.0000000000e+00 0.0000e+00 1.0000e+00
      -13  1    1    2    0    0 -3.2506322379e+02 +1.4965452536e+02 +9.2967116245e+02 9.9616818195e+02 0.0000000000e+00 0.0000e+00 1.0000e+00
       13  1    1    2    0    0 +3.2506322379e+02 -1.4965452536e+02 +1.0303043519e+03 1.0906831043e+03 0.0000000000e+00 0.0000e+00 -1.0000e+00
<mgrwt>
<rscale>  0 0.71655026E+03</rscale>
<asrwt>0</asrwt>
<pdfrwt beam="1">  1        2 0.31129432E+00 0.71655026E+03</pdfrwt>
<pdfrwt beam="2">  1       -2 0.97596763E-02 0.71655026E+03</pdfrwt>
<totfact> 0.52525303E+02</totfact>
</mgrwt>
<rwgt>
<wgt id='morphing_basis_vector_1'> +2.9267482e-04 </wgt>
<wgt id='morphing_basis_vector_2'> +1.9311730e-04 </wgt>
<wgt id='morphing_basis_vector_3'> +2.4800672e-04 </wgt>
<wgt id='morphing_basis_vector_4'> +1.1605697e-04 </wgt>
<wgt id='morphing_basis_vector_5'> +1.9405794e-04 </wgt>
</rwgt>
</event>
<event>
 4      1 +5.9529000e-06 6.43517800e+02 7.81860800e-03 9.12593500e-02
        2 -1    0    0  501    0 +0.0000000000e+00 +0.0000000000e+00 +5.2526880906e+02 5.2526880906e+02 0.0000000000e+00 0.0000e+00 -1.0000e+00
       -2 -1    0    0    0  501 -0.0000000000e+00 -0.0000000000e+00 -1.9709677735e+02 1.9709677735e+02 0.0000000000e+00 0.0000e+00 1.0000e+00
      -13  1    1    2    0    0 -2.8744223917e+02 -1.2502142378e+02 +2.4561722110e+02 3.9822257164e+02 0.0000000000e+00 0.0000e+00 1.0000e+00
       13  1    1    2    0    0 +2.8744223917e+02 +1.2502142378e+02 +8.2554810606e+01 3.2414301476e+02 0.0000000000e+00 0.0000e+00 -1.0000e+00
<mgrwt>
<rscale>  0 0.64351780E+03</rscale>
<asrwt>0</asrwt>
<pdfrwt beam="1">  1        2 0.80810586E-01 0.64351780E+03</pdfrwt>
<pdfrwt beam="2">  1       -2 0.30322581E-01 0.64351780E+03</pdfrwt>
<totfact> 0.68313532E+02</totfact>
</mgrwt>
<rwgt>
<wgt id='morphing_basis_vector_1'> +2.1237032e-04 </wgt>
<wgt id='morphing_basis_vector_2'> +1.5983996e-04 </wgt>
<wgt id='morphing_basis_vector_3'> +1.6463503e-04 </wgt>
<wgt id='morphing_basis_vector_4'> +6.2098304e-05 </wgt>
<wgt id='morphing_basis_vector_5'> +1.1546333e-04 </wgt>
</rwgt>
</event>
<event>
 4      1 +5.9529000e-06 6.77408300e+02 7.81860800e-03 9.07219600e-02
        2 -1    0    0  501    0 +0.0000000000e+00 +0.0000000000e+00 +8.4833797967e+02 8.4833797967e+02 0.0000000000e+00 0.0000e+00 1.0000e+00
       -2 -1    0    0    0  501 -0.0000000000e+00 -0.0000000000e+00 -1.3522973188e+02 1.3522973188e+02 0.0000000000e+00 0.0000e+00 -1.0000e+00
      -13  1    1    2    0    0 -9.2535388284e+01 -1.3334380630e+02 +7.8819613964e+02 8.0473382141e+02 0.0000000000e+00 0.0000e+00 1.0000e+00
       13  1    1    2    0    0 +9.2535388284e+01 +1.3334380630e+02 -7.5087891853e+01 1.7883389015e+02 0.0000000000e+00 0.0000e+00 -1.0000e+00
<mgrwt>
<rscale>  0 0.67740835E+03</rscale>
<asrwt>0</asrwt>
<pdfrwt beam="1">  1        2 0.13051353E+00 0.67740835E+03</pdfrwt>
<pdfrwt beam="2">  1       -2 0.20804575E-01 0.67740835E+03</pdfrwt>
<totfact> 0.72831054E+02</totfact>
</mgrwt>
<rwgt>
<wgt id='morphing_basis_vector_1'> +3.1651040e-04 </wgt>
<wgt id='morphing_basis_vector_2'> +3.8927179e-04 </wgt>
<wgt id='morphing_basis_vector_3'> +2.2022637e-04 </wgt>
<wgt id='morphing_basis_vector_4'> +1.4910143e-05 </wgt>
<wgt id='morphing_basis_vector_5'> +1.4689552e-04 </wgt>
</rwgt>
</event>
<event>
 4      1 +5.9529000e-06 6.54936100e+02 7.81860800e-03 9.10745000e-02
        2 -1    0    0  501    0 +0.0000000000e+00 +0.0000000000e+00 +1.4092864022e+03 1.4092864022e+03 0.0000000000e+00 0.0000e+00 -1.0000e+00
       -2 -1    0    0    0  501 -0.0000000000e+00 -0.0000000000e+00 -7.6091920083e+01 7.6091920083e+01 0.0000000000e+00 0.0000e+00 1.0000e+00
      -13  1    1    2    0    0 -1.7464219993e+02 -1.9632490086e+02 +1.1098220522e+03 1.1405035520e+03 0.0000000000e+00 0.0000e+00 1.0000e+00
       13  1    1    2    0    0 +1.7464219993e+02 +1.9632490086e+02 +2.2337242991e+02 3.4487477022e+02 0.0000000000e+00 0.0000e+00 -1.0000e+00
<mgrwt>
<rscale>  0 0.65493605E+03</rscale>
<asrwt>0</asrwt>
<pdfrwt beam="1">  1        2 0.21681327E+00 0.65493605E+03</pdfrwt>
<pdfrwt beam="2">  1       -2 0.11706450E-01 0.65493605E+03</pdfrwt>
<totfact> 0.85976195E+02</totfact>
</mgrwt>
<rwgt>
<wgt id='morphing_basis_vector_1'> +2.5667161e-04 </wgt>
<wgt id='morphing_basis_vector_2'> +2.6710912e-04 </wgt>
<wgt id='morphing_basis_vector_3'> +1.8326844e-04 </wgt>
<wgt id='morphing_basis_vector_4'> +3.7989733e-05 </wgt>
<wgt id='morphing_basis_vector_5'> +1.2543446e-04 </wgt>
</rwgt>
</event>
<event>
 4      1 +5.9529000e-06 6.67846200e+02 7.81860800e-03 9.08702000e-02
        2 -1    0    0  501    0 +0.0000000000e+00 +0.0000000000e+00 +8.3851044712e+02 8.3851044712e+02 0.0000000000e+00 0.0000e+00 1.0000e+00
       -2 -1    0    0    0  501 -0.0000000000e+00 -0.0000000000e+00 -1.3297942137e+02 1.3297942137e+02 0.0000000000e+00 0.0000e+00 -1.0000e+00
      -13  1    1    2    0    0 +1.5920745815e+01 -3.3265792116e+02 +3.1743576819e+02 4.6008719780e+02 0.0000000000e+00 0.0000e+00 -1.0000e+00
       13  1    1    2    0    0 -1.5920745815e+01 +3.3265792116e+02 +3.8809525755e+02 5.1140267069e+02 0.0000000000e+00 0.0000e+00 1.0000e+00
<mgrwt>
<rscale>  0 0.66784619E+03</rscale>
<asrwt>0</asrwt>
<pdfrwt beam="1">  1        2 0.12900160E+00 0.66784619E+03</pdfrwt>
<pdfrwt beam="2">  1       -2 0.20458373E-01 0.66784619E+03</pdfrwt>
<totfact> 0.76069841E+02</totfact>
</mgrwt>
<rwgt>
<wgt id='morphing_basis_vector_1'> +2.2958521e-04 </wgt>
<wgt id='morphing_basis_vector_2'> +1.4815741e-04 </wgt>
<wgt id='morphing_basis_vector_3'> +1.8818737e-04 </wgt>
<wgt id='morphing_basis_vector_4'> +8.4332391e-05 </wgt>
<wgt id='morphing_basis_vector_5'> +1.3857159e-04 </wgt>
</rwgt>
</event>
<event>
 4      1 +5.9529000e-06 6.64270000e+02 7.81860800e-03 9.09263000e-02
        2 -1    0    0  501    0 +0.0000000000e+00 +0.0000000000e+00 +2.8569198828e+02 2.8569198828e+02 0.0000000000e+00 0.0000e+00 1.0000e+00
       -2 -1    0    0    0  501 -0.0000000000e+00 -0.0000000000e+00 -3.8612792729e+02 3.8612792729e+02 0.0000000000e+00 0.0000e+00 -1.0000e+00
      -13  1    1    2    0    0 -5.0702327811e+01 -2.6033964266e+02 +1.5196970058e+02 3.0568324370e+02 0.0000000000e+00 0.0000e+00 1.0000e+00
       13  1    1    2    0    0 +5.0702327811e+01 +2.6033964266e+02 -2.5240563959e+02 3.6613667186e+02 0.0000000000e+00 0.0000e+00 -1.0000e+00
<mgrwt>
<rscale>  0 0.66426999E+03</rscale>
<asrwt>0</asrwt>
<pdfrwt beam="1">  1        2 0.43952614E-01 0.66426999E+03</pdfrwt>
<pdfrwt beam="2">  1       -2 0.59404296E-01 0.66426999E+03</pdfrwt>
<totfact> 0.38143977E+02</totfact>
</mgrwt>
<rwgt>
<wgt id='morphing_basis_vector_1'> +2.6982479e-04 </wgt>
<wgt id='morphing_basis_vector_2'> +2.8241082e-04 </wgt>
<wgt id='morphing_basis_vector_3'> +1.9501163e-04 </wgt>
<wgt id='morphing_basis_vector_4'> +3.9648793e-05 </wgt>
<wgt id='morphing_basis_vector_5'> +1.3427676e-04 </wgt>
</rwgt>
</event>
<event>
 4      1 +5.9529000e-06 6.36768000e+02 7.81860800e-03 9.13705200e-02
        2 -1    0    0  501    0 +0.0000000000e+00 +0.0000000000e+00 +4.1513320863e+02 4.1513320863e+02 0.0000000000e+00 0.0000e+00 1.0000e+00
       -2 -1    0    0    0  501 -0.0000000000e+00 -0.0000000000e+00 -2.4418274154e+02 2.4418274154e+02 0.0000000000e+00 0.0000e+00 -1.0000e+00
      -13  1    1    2    0    0 -1.2222168232e+01 +2.9070780531e+02 +2.1931156416e+02 3.6435967346e+02 0.0000000000e+00 0.0000e+00 -1.0000e+00
       13  1    1    2    0    0 +1.2222168232e+01 -2.9070780531e+02 -4.8361097076e+01 2.9495627672e+02 0.0000000000e+00 0.0000e+00 1.0000e+00
<mgrwt>
<rscale>  0 0.63676798E+03</rscale>
<asrwt>0</asrwt>
<pdfrwt beam="1">  1        2 0.63866647E-01 0.63676798E+03</pdfrwt>
<pdfrwt beam="2">  1       -2 0.37566576E-01 0.63676798E+03</pdfrwt>
<totfact> 0.60720241E+02</totfact>
</mgrwt>
<rwgt>
<wgt id='morphing_basis_vector_1'> +2.1619820e-04 </wgt>
<wgt id='morphing_basis_vector_2'> +1.8861795e-04 </wgt>
<wgt id='morphing_basis_vector_3'> +1.5954018e-04 </wgt>
<wgt id='morphing_basis_vector_4'> +4.9280146e-05 </wgt>
<wgt id='morphing_basis_vector_5'> +1.0952936e-04 </wgt>
</rwgt>
</event>
<event>
 4      1 +5.9529000e-06 6.27458600e+02 7.81860800e-03 9.15262500e-02
        2 -1    0    0  501    0 +0.0000000000e+00 +0.0000000000e+00 +2.2507254622e+03 2.2507254622e+03 0.0000000000e+00 0.0000e+00 1.0000e+00
       -2 -1    0    0    0  501 -0.0000000000e+00 -0.0000000000e+00 -4.3730826749e+01 4.3730826749e+01 0.0000000000e+00 0.0000e+00 -1.0000e+00
      -13  1    1    2    0    0 -2.7833730102e+01 -3.1248425416e+02 +1.1116409595e+03 1.1550613614e+03 0.0000000000e+00 0.0000e+00 1.0000e+00
       13  1    1    2    0    0 +2.7833730102e+01 +3.1248425416e+02 +1.0953536759e+03 1.1393949275e+03 0.0000000000e+00 0.0000e+00 -1.0000e+00
<mgrwt>
<rscale>  0 0.62745864E+03</rscale>
<asrwt>0</asrwt>
<pdfrwt beam="1">  1        2 0.34626536E+00 0.62745864E+03</pdfrwt>
<pdfrwt beam="2">  1       -2 0.67278213E-02 0.62745864E+03</pdfrwt>
<totfact> 0.70374352E+02</totfact>
</mgrwt>
<rwgt>
<wgt id='morphing_basis_vector_1'> +1.8797230e-04 </wgt>
<wgt id='morphing_basis_vector_2'> +1.2384845e-04 </wgt>
<wgt id='morphing_basis_vector_3'> +1.4798230e-04 </wgt>
<wgt id='morphing_basis_vector_4'> +6.1461526e-05 </wgt>
<wgt id='morphing_basis_vector_5'> +1.0192158e-04 </wgt>
</rwgt>
</event>
<event>
 4      1 +5.9529000e-06 7.23043500e+02 7.81860800e-03 9.00480200e-02
        2 -1    0    0  501    0 +0.0000000000e+00 +0.0000000000e+00 +8.2440779722e+02 8.2440779722e+02 0.0000000000e+00 0.0000e+00 -1.0000e+00
       -2 -1    0    0    0  501 -0.0000000000e+00 -0.0000000000e+00 -1.5853557321e+02 1.5853557321e+02 0.0000000000e+00 0.0000e+00 1.0000e+00
      -13  1    1    2    0    0 +5.8662048390e+01 +3.5082309294e+02 +2.4504474492e+02 4.3193171391e+02 0.0000000000e+00 0.0000e+00 1.0000e+00
       13  1    1    2    0    0 -5.8662048390e+01 -3.5082309294e+02 +4.2082747910e+02 5.5101165653e+02 0.0000000000e+00 0.0000e+00 -1.0000e+00
<mgrwt>
<rscale>  0 0.72304346E+03</rscale>
<asrwt>0</asrwt>
<pdfrwt beam="1">  1        2 0.12683197E+00 0.72304346E+03</pdfrwt>
<pdfrwt beam="2">  1       -2 0.24390089E-01 0.72304346E+03</pdfrwt>
<totfact> 0.57720769E+02</totfact>
</mgrwt>
<rwgt>
<wgt id='morphing_basis_vector_1'> +2.9858174e-04 </wgt>
<wgt id='morphing_basis_vector_2'> +1.8923075e-04 </wgt>
<wgt id='morphing_basis_vector_3'> +2.5556421e-04 </wgt>
<wgt id='morphing_basis_vector_4'> +1.2466334e-04 </wgt>
<wgt id='morphing_basis_vector_5'> +2.0260124e-04 </wgt>
</rwgt>
</event>
<event>
 4      1 +5.9529000e-06 6.57586200e+02 7.81860800e-03 9.10321600e-02
        2 -1    0    0  501    0 +0.0000000000e+00 +0.0000000000e+00 +8.6948880091e+02 8.6948880091e+02 0.0000000000e+00 0.0000e+00 1.0000e+00
       -2 -1    0    0    0  501 -0.0000000000e+00 -0.0000000000e+00 -1.2433156407e+02 1.2433156407e+02 0.0000000000e+00 0.0000e+00 -1.0000e+00
      -13  1    1    2    0    0 +2.0328606918e+02 -1.0684912187e+02 +1.6976138613e+01 2.3028276107e+02 0.0000000000e+00 0.0000e+00 -1.0000e+00
       13  1    1    2    0    0 -2.0328606918e+02 +1.0684912187e+02 +7.2818109823e+02 7.6353760391e+02 0.0000000000e+00 0.0000e+00 1.0000e+00
<mgrwt>
<rscale>  0 0.65758620E+03</rscale>
<asrwt>0</asrwt>
<pdfrwt beam="1">  1        2 0.13376750E+00 0.65758620E+03</pdfrwt>
<pdfrwt beam="2">  1       -2 0.19127933E-01 0.65758620E+03</pdfrwt>
<totfact> 0.81146406E+02</totfact>
</mgrwt>
<rwgt>
<wgt id='morphing_basis_vector_1'> +2.1253267e-04 </wgt>
<wgt id='morphing_basis_vector_2'> +1.2358084e-04 </wgt>
<wgt id='morphing_basis_vector_3'> +1.7601417e-04 </wgt>
<wgt id='morphing_basis_vector_4'> +8.3501580e-05 </wgt>
<wgt id='morphing_basis_vector_5'> +1.2858289e-04 </wgt>
</rwgt>
</event>
<event>
 4      1 +5.9529000e-06 6.50310800e+02 7.81860800e-03 9.11489000e-02
        2 -1    0    0  501    0 +0.0000000000e+00 +0.0000000000e+00 +5.1143960808e+02 5.1143960808e+02 0.0000000000e+00 0.0000e+00 1.0000e+00
       -2 -1    0    0    0  501 -0.0000000000e+00 -0.0000000000e+00 -2.0672239470e+02 2.0672239470e+02 0.0000000000e+00 0.0000e+00 -1.0000e+00
      -13  1    1    2    0    0 -1.7693812559e+01 +3.2466955188e+02 +1.5415008669e+02 3.5984112904e+02 0.0000000000e+00 0.0000e+00 -1.0000e+00
       13  1    1    2    0    0 +1.7693812559e+01 -3.2466955188e+02 +1.5056712668e+02 3.5832087374e+02 0.0000000000e+00 0.0000e+00 1.0000e+00
<mgrwt>
<rscale>  0 0.65031076E+03</rscale>
<asrwt>0</asrwt>
<pdfrwt beam="1">  1        2 0.78683017E-01 0.65031076E+03</pdfrwt>
<pdfrwt beam="2">  1       -2 0.31803445E-01 0.65031076E+03</pdfrwt>
<totfact> 0.64722225E+02</totfact>
</mgrwt>
<rwgt>
<wgt id='morphing_basis_vector_1'> +2.1170580e-04 </wgt>
<wgt id='morphing_basis_vector_2'> +1.4028600e-04 </wgt>
<wgt id='morphing_basis_vector_3'> +1.7006325e-04 </wgt>
<wgt id='morphing_basis_vector_4'> +7.2797479e-05 </wgt>
<wgt id='morphing_basis_vector_5'> +1.2166780e-04 </wgt>
</rwgt>
</event>
<event>
 4      1 +5.9529000e-06 6.87050800e+02 7.81860800e-03 9.05750500e-02
        2 -1    0    0  501    0 +0.0000000000e+00 +0.0000000000e+00 +1.8000493557e+02 1.8000493557e+02 0.0000000000e+00 0.0000e+00 1.0000e+00
       -2 -1    0    0    0  501 -0.0000000000e+00 -0.0000000000e+00 -6.5559153423e+02 6.5559153423e+02 0.0000000000e+00 0.0000e+00 -1.0000e+00
      -13  1    1    2    0    0 -1.4365481990e+02 +2.8815910475e+02 -3.8342031228e+02 5.0068304625e+02 0.0000000000e+00 0.0000e+00 1.0000e+00
       13  1    1    2    0    0 +1.4365481990e+02 -2.8815910475e+02 -9.2166286381e+01 3.3491342355e+02 0.0000000000e+00 0.0000e+00 -1.0000e+00
<mgrwt>
<rscale>  0 0.68705083E+03</rscale>
<asrwt>0</asrwt>
<pdfrwt beam="1">  1        2 0.27693067E-01 0.68705083E+03</pdfrwt>
<pdfrwt beam="2">  1       -2 0.10086024E+00 0.68705083E+03</pdfrwt>
<totfact> 0.19973071E+02</totfact>
</mgrwt>
<rwgt>
<wgt id='morphing_basis_vector_1'> +2.4838297e-04 </wgt>
<wgt id='morphing_basis_vector_2'> +1.5046683e-04 </wgt>
<wgt id='morphing_basis_vector_3'> +2.0880257e-04 </wgt>
<wgt id='morphing_basis_vector_4'> +1.0070411e-04 </wgt>
<wgt id='morphing_basis_vector_5'> +1.5899067e-04 </wgt>
</rwgt>
</event>
<event>
 4      1 +5.9529000e-06 7.11731500e+02 7.81860800e-03 9.02101600e-02
        2 -1    0    0  501    0 +0.0000000000e+00 +0.0000000000e+00 +2.1602504249e+03 2.1602504249e+03 0.0000000000e+00 0.0000e+00 -1.0000e+00
       -2 -1    0    0    0  501 -0.0000000000e+00 -0.0000000000e+00 -5.8623040158e+01 5.8623040158e+01 0.0000000000e+00 0.0000e+00 1.0000e+00
      -13  1    1    2    0    0 +8.4451275853e+01 -2.8372992503e+02 +4.3509733740e+02 5.2625505352e+02 0.0000000000e+00 0.0000e+00 1.0000e+00
       13  1    1    2    0    0 -8.4451275853e+01 +2.8372992503e+02 +1.6665300473e+03 1.6926184115e+03 0.0000000000e+00 0.0000e+00 -1.0000e+00
<mgrwt>
<rscale>  0 0.71173154E+03</rscale>
<asrwt>0</asrwt>
<pdfrwt beam="1">  1        2 0.33234616E+00 0.71173154E+03</pdfrwt>
<pdfrwt beam="2">  1       -2 0.90189309E-02 0.71173154E+03</pdfrwt>
<totfact> 0.49909162E+02</totfact>
</mgrwt>
<rwgt>
<wgt id='morphing_basis_vector_1'> +2.7871240e-04 </wgt>
<wgt id='morphing_basis_vector_2'> +1.6616023e-04 </wgt>
<wgt id='morphing_basis_vector_3'> +2.3876820e-04 </wgt>
<wgt id='morphing_basis_vector_4'> +1.2032603e-04 </wgt>
<wgt id='morphing_basis_vector_5'> +1.8818790e-04 </wgt>
</rwgt>
</event>
<event>
 4      1 +5.9529000e-06 6.57269200e+02 7.81860800e-03 9.10372200e-02
        2 -1    0    0  501    0 +0.0000000000e+00 +0.0000000000e+00 +1.8797795969e+03 1.8797795969e+03 0.0000000000e+00 0.0000e+00 -1.0000e+00
       -2 -1    0    0    0  501 -0.0000000000e+00 -0.0000000000e+00 -5.7453919437e+01 5.7453919437e+01 0.0000000000e+00 0.0000e+00 1.0000e+00
      -13  1    1    2    0    0 +2.3963234269e+02 -1.6482160746e+02 +4.6019290865e+02 5.4439630336e+02 0.0000000000e+00 0.0000e+00 1.0000e+00
       13  1    1    2    0    0 -2.3963234269e+02 +1.6482160746e+02 +1.3621327688e+03 1.3928372129e+03 0.0000000000e+00 0.0000e+00 -1.0000e+00
<mgrwt>
<rscale>  0 0.65726922E+03</rscale>
<asrwt>0</asrwt>
<pdfrwt beam="1">  1        2 0.28919681E+00 0.65726922E+03</pdfrwt>
<pdfrwt beam="2">  1       -2 0.88390659E-02 0.65726922E+03</pdfrwt>
<totfact> 0.73861763E+02</totfact>
</mgrwt>
<rwgt>
<wgt id='morphing_basis_vector_1'> +2.1302629e-04 </wgt>
<wgt id='morphing_basis_vector_2'> +1.2595714e-04 </wgt>
<wgt id='morphing_basis_vector_3'> +1.7587382e-04 </wgt>
<wgt id='morphing_basis_vector_4'> +8.2522941e-05 </wgt>
<wgt id='morphing_basis_vector_5'> +1.2826789e-04 </wgt>
</rwgt>
</event>
<event>
 4      1 +5.9529000e-06 6.40163700e+02 7.81860800e-03 9.13144100e-02
        2 -1    0    0  501    0 +0.0000000000e+00 +0.0000000000e+00 +3.1431947551e+02 3.1431947551e+02 0.0000000000e+00 0.0000e+00 -1.0000e+00
       -2 -1    0    0    0  501 -0.0000000000e+00 -0.0000000000e+00 -3.2594981608e+02 3.2594981608e+02 0.0000000000e+00 0.0000e+00 1.0000e+00
      -13  1    1    2    0    0 +1.5596017792e+02 +3.5602845173e+01 -2.8309950982e+02 3.2517145038e+02 0.0000000000e+00 0.0000e+00 1.0000e+00
       13  1    1    2    0    0 -1.5596017792e+02 -3.5602845173e+01 +2.7146916925e+02 3.1509784121e+02 0.0000000000e+00 0.0000e+00 -1.0000e+00
<mgrwt>
<rscale>  0 0.64016365E+03</rscale>
<asrwt>0</asrwt>
<pdfrwt beam="1">  1        2 0.48356842E-01 0.64016365E+03</pdfrwt>
<pdfrwt beam="2">  1       -2 0.50146126E-01 0.64016365E+03</pdfrwt>
<totfact> 0.48083916E+02</totfact>
</mgrwt>
<rwgt>
<wgt id='morphing_basis_vector_1'> +1.9411575e-04 </wgt>
<wgt id='morphing_basis_vector_2'> +1.1182893e-04 </wgt>
<wgt id='morphing_basis_vector_3'> +1.5886174e-04 </wgt>
<wgt id='morphing_basis_vector_4'> +7.3637553e-05 </wgt>
<wgt id='morphing_basis_vector_5'> +1.1265470e-04 </wgt>
</rwgt>
</event>
<event>
 4      1 +5.9529000e-06 6.64248400e+02 7.81860800e-03 9.09266400e-02
        2 -1    0    0  501    0 +0.0000000000e+00 +0.0000000000e+00 +8.1995321441e+02 8.1995321441e+02 0.0000000000e+00 0.0000e+00 1.0000e+00
       -2 -1    0    0    0  501 -0.0000000000e+00 -0.0000000000e+00 -1.3452779050e+02 1.3452779050e+02 0.0000000000e+00 0.0000e+00 -1.0000e+00
      -13  1    1    2    0    0 -1.4921410885e+02 -2.7451271672e+02 +1.8087790702e+02 3.6102479024e+02 0.0000000000e+00 0.0000e+00 -1.0000e+00
       13  1    1    2    0    0 +1.4921410885e+02 +2.7451271672e+02 +5.0454751689e+02 5.9345621466e+02 0.0000000000e+00 0.0000e+00 1.0000e+00
<mgrwt>
<rscale>  0 0.66424843E+03</rscale>
<asrwt>0</asrwt>
<pdfrwt beam="1">  1        2 0.12614665E+00 0.66424843E+03</pdfrwt>
<pdfrwt beam="2">  1       -2 0.20696584E-01 0.66424843E+03</pdfrwt>
<totfact> 0.76817779E+02</totfact>
</mgrwt>
<rwgt>
<wgt id='morphing_basis_vector_1'> +2.2162370e-04 </wgt>
<wgt id='morphing_basis_vector_2'> +1.3354974e-04 </wgt>
<wgt id='morphing_basis_vector_3'> +1.8335523e-04 </wgt>
<wgt id='morphing_basis_vector_4'> +8.5889104e-05 </wgt>
<wgt id='morphing_basis_vector_5'> +1.3504341e-04 </wgt>
</rwgt>
</event>
<event>
 4      1 +5.9529000e-06 7.40670100e+02 7.81860800e-03 8.98015000e-02
        2 -1    0    0  501    0 +0.0000000000e+00 +0.0000000000e+00 +2.7989691155e+02 2.7989691155e+02 0.0000000000e+00 0.0000e+00 1.0000e+00
       -2 -1    0    0    0  501 -0.0000000000e+00 -0.0000000000e+00 -4.8999485265e+02 4.8999485265e+02 0.0000000000e+00 0.0000e+00 -1.0000e+00
      -13  1    1    2    0    0 +3.7189771100e+00 +1.6849208460e+02 -4.4782368773e+02 4.7848664418e+02 0.0000000000e+00 0.0000e+00 -1.0000e+00
       13  1    1    2    0    0 -3.7189771100e+00 -1.6849208460e+02 +2.3772574663e+02 2.9140512002e+02 0.0000000000e+00 0.0000e+00 1.0000e+00
<mgrwt>
<rscale>  0 0.74067009E+03</rscale>
<asrwt>0</asrwt>
<pdfrwt beam="1">  1        2 0.43061063E-01 0.74067009E+03</pdfrwt>
<pdfrwt beam="2">  1       -2 0.75383824E-01 0.74067009E+03</pdfrwt>
<totfact> 0.23542854E+02</totfact>
</mgrwt>
<rwgt>
<wgt id='morphing_basis_vector_1'> +3.1894577e-04 </wgt>
<wgt id='morphing_basis_vector_2'> +1.8929063e-04 </wgt>
<wgt id='morphing_basis_vector_3'> +2.7820388e-04 </wgt>
<wgt id='morphing_basis_vector_4'> +1.4565717e-04 </wgt>
<wgt id='morphing_basis_vector_5'> +2.2704452e-04 </wgt>
</rwgt>
</event>
<event>
 4      1 +5.9529000e-06 7.49077300e+02 7.81860800e-03 8.96864900e-02
        2 -1    0    0  501    0 +0.0000000000e+00 +0.0000000000e+00 +6.9460953131e+02 6.9460953131e+02 0.0000000000e+00 0.0000e+00 1.0000e+00
       -2 -1    0    0    0  501 -0.0000000000e+00 -0.0000000000e+00 -2.0195402169e+02 2.0195402169e+02 0.0000000000e+00 0.0000e+00 -1.0000e+00
      -13  1    1    2    0    0 +2.8652373581e+02 +2.3943049776e+02 +2.8135340263e+02 4.6752812922e+02 0.0000000000e+00 0.0000e+00 -1.0000e+00
       13  1    1    2    0    0 -2.8652373581e+02 -2.3943049776e+02 +2.1130210699e+02 4.2903542378e+02 0.0000000000e+00 0.0000e+00 1.0000e+00
<mgrwt>
<rscale>  0 0.74907727E+03</rscale>
<asrwt>0</asrwt>
<pdfrwt beam="1">  1        2 0.10686300E+00 0.74907727E+03</pdfrwt>
<pdfrwt beam="2">  1       -2 0.31069850E-01 0.74907727E+03</pdfrwt>
<totfact> 0.46924414E+02</totfact>
</mgrwt>
<rwgt>
<wgt id='morphing_basis_vector_1'> +3.4700870e-04 </wgt>
<wgt id='morphing_basis_vector_2'> +2.4426302e-04 </wgt>
<wgt id='morphing_basis_vector_3'> +2.9797580e-04 </wgt>
<wgt id='morphing_basis_vector_4'> +1.3561960e-04 </wgt>
<wgt id='morphing_basis_vector_5'> +2.3869256e-04 </wgt>
</rwgt>
</event>
<event>
 4      1 +5.9529000e-06 6.95944600e+02 7.81860800e-03 9.04417500e-02
        2 -1    0    0  501    0 +0.0000000000e+00 +0.0000000000e+00 +5.0214204519e+02 5.0214204519e+02 0.0000000000e+00 0.0000e+00 1.0000e+00
       -2 -1    0    0    0  501 -0.0000000000e+00 -0.0000000000e+00 -2.4113639478e+02 2.4113639478e+02 0.0000000000e+00 0.0000e+00 -1.0000e+00
      -13  1    1    2    0    0 +2.1542571266e+02 +1.6929489639e+02 +3.5960540986e+02 4.5208964866e+02 0.0000000000e+00 0.0000e+00 1.0000e+00
       13  1    1    2    0    0 -2.1542571266e+02 -1.6929489639e+02 -9.8599759457e+01 2.9118879131e+02 0.0000000000e+00 0.0000e+00 -1.0000e+00
<mgrwt>
<rscale>  0 0.69594460E+03</rscale>
<asrwt>0</asrwt>
<pdfrwt beam="1">  1        2 0.77252622E-01 0.69594460E+03</pdfrwt>
<pdfrwt beam="2">  1       -2 0.37097907E-01 0.69594460E+03</pdfrwt>
<totfact> 0.50015802E+02</totfact>
</mgrwt>
<rwgt>
<wgt id='morphing_basis_vector_1'> +3.1821191e-04 </wgt>
<wgt id='morphing_basis_vector_2'> +3.3856680e-04 </wgt>
<wgt id='morphing_basis_vector_3'> +2.3922067e-04 </wgt>
<wgt id='morphing_basis_vector_4'> +4.5802901e-05 </wgt>
<wgt id='morphing_basis_vector_5'> +1.6756555e-04 </wgt>
</rwgt>
</event>
<event>
 4      1 +5.9529000e-06 6.93645600e+02 7.81860800e-03 9.04760000e-02
        2 -1    0    0  501    0 +0.0000000000e+00 +0.0000000000e+00 +2.4412750080e+03 2.4412750080e+03 0.0000000000e+00 0.0000e+00 -1.0000e+00
       -2 -1    0    0    0  501 -0.0000000000e+00 -0.0000000000e+00 -4.9271821762e+01 4.9271821762e+01 0.0000000000e+00 0.0000e+00 1.0000e+00
      -13  1    1    2    0    0 -3.2278215144e+02 -1.2188859687e+02 +1.0695195423e+03 1.1237958883e+03 0.0000000000e+00 0.0000e+00 1.0000e+00
       13  1    1    2    0    0 +3.2278215144e+02 +1.2188859687e+02 +1.3224836440e+03 1.3667509414e+03 0.0000000000e+00 0.0000e+00 -1.0000e+00
<mgrwt>
<rscale>  0 0.69364564E+03</rscale>
<asrwt>0</asrwt>
<pdfrwt beam="1">  1        2 0.37558068E+00 0.69364564E+03</pdfrwt>
<pdfrwt beam="2">  1       -2 0.75802822E-02 0.69364564E+03</pdfrwt>
<totfact> 0.45342832E+02</totfact>
</mgrwt>
<rwgt>
<wgt id='morphing_basis_vector_1'> +2.6044974e-04 </wgt>
<wgt id='morphing_basis_vector_2'> +1.6759259e-04 </wgt>
<wgt id='morphing_basis_vector_3'> +2.1792418e-04 </wgt>
<wgt id='morphing_basis_vector_4'> +1.0130900e-04 </wgt>
<wgt id='morphing_basis_vector_5'> +1.6634324e-04 </wgt>
</rwgt>
</event>
<event>
 4      1 +5.9529000e-06 6.99349400e+02 7.81860800e-03 9.03912600e-02
        2 -1    0    0  501    0 +0.0000000000e+00 +0.0000000000e+00 +6.3827334870e+02 6.3827334870e+02 0.0000000000e+00 0.0000e+00 -1.0000e+00
       -2 -1    0    0    0  501 -0.0000000000e+00 -0.0000000000e+00 -1.9156746968e+02 1.9156746968e+02 0.0000000000e+00 0.0000e+00 1.0000e+00
      -13  1    1    2    0    0 +1.8649532561e+02 -2.5130454363e+02 +4.0846826790e+02 5.1456856297e+02 0.0000000000e+00 0.0000e+00 -1.0000e+00
       13  1    1    2    0    0 -1.8649532561e+02 +2.5130454363e+02 +3.8237611127e+01 3.1527225540e+02 0.0000000000e+00 0.0000e+00 1.0000e+00
<mgrwt>
<rscale>  0 0.69934944E+03</rscale>
<asrwt>0</asrwt>
<pdfrwt beam="1">  1        2 0.98195899E-01 0.69934944E+03</pdfrwt>
<pdfrwt beam="2">  1       -2 0.29471919E-01 0.69934944E+03</pdfrwt>
<totfact> 0.57132592E+02</totfact>
</mgrwt>
<rwgt>
<wgt id='morphing_basis_vector_1'> +3.0139385e-04 </wgt>
<wgt id='morphing_basis_vector_2'> +2.7602365e-04 </wgt>
<wgt id='morphing_basis_vector_3'> +2.3663110e-04 </wgt>
<wgt id='morphing_basis_vector_4'> +7.0008689e-05 </wgt>
<wgt id='morphing_basis_vector_5'> +1.7206588e-04 </wgt>
</rwgt>
</event>
<event>
 4      1 +5.9529000e-06 7.47735600e+02 7.81860800e-03 8.97047300e-02
        2 -1    0    0  501    0 +0.0000000000e+00 +0.0000000000e+00 +1.6654943217e+02 1.6654943217e+02 0.0000000000e+00 0.0000e+00 -1.0000e+00
       -2 -1    0    0    0  501 -0.0000000000e+00 -0.0000000000e+00 -8.3925322859e+02 8.3925322859e+02 0.0000000000e+00 0.0000e+00 1.0000e+00
      -13  1    1    2    0    0 +3.0803015269e+02 +2.0215286589e+02 -2.5097268529e+02 4.4579776235e+02 0.0000000000e+00 0.0000e+00 1.0000e+00
       13  1    1    2    0    0 -3.0803015269e+02 -2.0215286589e+02 -4.2173111112e+02 5.6000489841e+02 0.0000000000e+00 0.0000e+00 -1.0000e+00
<mgrwt>
<rscale>  0 0.74773564E+03</rscale>
<asrwt>0</asrwt>
<pdfrwt beam="1">  1        2 0.25622990E-01 0.74773564E+03</pdfrwt>
<pdfrwt beam="2">  1       -2 0.12911588E+00 0.74773564E+03</pdfrwt>
<totfact> 0.11648208E+02</totfact>
</mgrwt>
<rwgt>
<wgt id='morphing_basis_vector_1'> +3.5051938e-04 </wgt>
<wgt id='morphing_basis_vector_2'> +2.6010589e-04 </wgt>
<wgt id='morphing_basis_vector_3'> +2.9856288e-04 </wgt>
<wgt id='morphing_basis_vector_4'> +1.2794398e-04 </wgt>
<wgt id='morphing_basis_vector_5'> +2.3648131e-04 </wgt>
</rwgt>
</event>
<event>
 4      1 +5.9529000e-06 6.40092500e+02 7.81860800e-03 9.13155800e-02
        2 -1    0    0  501    0 +0.0000000000e+00 +0.0000000000e+00 +1.5408908856e+03 1.5408908856e+03 0.0000000000e+00 0.0000e+00 1.0000e+00
       -2 -1    0    0    0  501 -0.0000000000e+00 -0.0000000000e+00 -6.6474279641e+01 6.6474279641e+01 0.0000000000e+00 0.0000e+00 -1.0000e+00
      -13  1    1    2    0    0 -2.6063571106e+01 +2.8288884704e+02 +3.6708731682e+02 4.6417508301e+02 0.0000000000e+00 0.0000e+00 -1.0000e+00
       13  1    1    2    0    0 +2.6063571106e+01 -2.8288884704e+02 +1.1073292891e+03 1.1431900822e+03 0.0000000000e+00 0.0000e+00 1.0000e+00
<mgrwt>
<rscale>  0 0.64009253E+03</rscale>
<asrwt>0</asrwt>
<pdfrwt beam="1">  1        2 0.23706011E+00 0.64009253E+03</pdfrwt>
<pdfrwt beam="2">  1       -2 0.10226813E-01 0.64009253E+03</pdfrwt>
<totfact> 0.90086885E+02</totfact>
</mgrwt>
<rwgt>
<wgt id='morphing_basis_vector_1'> +1.9499642e-04 </wgt>
<wgt id='morphing_basis_vector_2'> +1.1473196e-04 </wgt>
<wgt id='morphing_basis_vector_3'> +1.5894952e-04 </wgt>
<wgt id='morphing_basis_vector_4'> +7.2748139e-05 </wgt>
<wgt id='morphing_basis_vector_5'> +1.1258451e-04 </wgt>
</rwgt>
</event>
<event>
 4      1 +5.9529000e-06 6.63052700e+02 7.81860800e-03 9.09454900e-02
        2 -1    0    0  501    0 +0.0000000000e+00 +0.0000000000e+00 +9.1285361577e+02 9.1285361577e+02 0.0000000000e+00 0.0000e+00 1.0000e+00
       -2 -1    0    0    0  501 -0.0000000000e+00 -0.0000000000e+00 -1.2040236132e+02 1.2040236132e+02 0.0000000000e+00 0.0000e+00 -1.0000e+00
      -13  1    1    2    0    0 -1.1712499716e+02 -1.5764551376e+02 +8.1244707585e+02 8.3584724922e+02 0.0000000000e+00 0.0000e+00 1.0000e+00
       13  1    1    2    0    0 +1.1712499716e+02 +1.5764551376e+02 -1.9995821400e+01 1.9740872787e+02 0.0000000000e+00 0.0000e+00 -1.0000e+00
<mgrwt>
<rscale>  0 0.66305273E+03</rscale>
<asrwt>0</asrwt>
<pdfrwt beam="1">  1        2 0.14043901E+00 0.66305273E+03</pdfrwt>
<pdfrwt beam="2">  1       -2 0.18523441E-01 0.66305273E+03</pdfrwt>
<totfact> 0.80176690E+02</totfact>
</mgrwt>
<rwgt>
<wgt id='morphing_basis_vector_1'> +2.8956789e-04 </wgt>
<wgt id='morphing_basis_vector_2'> +3.4677191e-04 </wgt>
<wgt id='morphing_basis_vector_3'> +1.9855381e-04 </wgt>
<wgt id='morphing_basis_vector_4'> +1.8870794e-05 </wgt>
<wgt id='morphing_basis_vector_5'> +1.3275633e-04 </wgt>
</rwgt>
</event>
<event>
 4      1 +5.9529000e-06 6.45467300e+02 7.81860800e-03 9.12275000e-02
        2 -1    0    0  501    0 +0.0000000000e+00 +0.0000000000e+00 +7.9624186725e+02 7.9624186725e+02 0.0000000000e+00 0.0000e+00 1.0000e+00
       -2 -1    0    0    0  501 -0.0000000000e+00 -0.0000000000e+00 -1.3081077793e+02 1.3081077793e+02 0.0000000000e+00 0.0000e+00 -1.0000e+00
      -13  1    1    2    0    0 +2.3635468507e+02 -2.4651776114e+00 +1.7108229434e+01 2.3698587673e+02 0.0000000000e+00 0.0000e+00 -1.0000e+00
       13  1    1    2    0    0 -2.3635468507e+02 +2.4651776114e+00 +6.4832285989e+02 6.9006676844e+02 0.0000000000e+00 0.0000e+00 1.0000e+00
<mgrwt>
<rscale>  0 0.64546733E+03</rscale>
<asrwt>0</asrwt>
<pdfrwt beam="1">  1        2 0.12249875E+00 0.64546733E+03</pdfrwt>
<pdfrwt beam="2">  1       -2 0.20124736E-01 0.64546733E+03</pdfrwt>
<totfact> 0.83617190E+02</totfact>
</mgrwt>
<rwgt>
<wgt id='morphing_basis_vector_1'> +1.9976246e-04 </wgt>
<wgt id='morphing_basis_vector_2'> +1.1586767e-04 </wgt>
<wgt id='morphing_basis_vector_3'> +1.6396901e-04 </wgt>
<wgt id='morphing_basis_vector_4'> +7.6382107e-05 </wgt>
<wgt id='morphing_basis_vector_5'> +1.1734566e-04 </wgt>
</rwgt>
</event>
<event>
 4      1 +5.9529000e-06 7.40941600e+02 7.81860800e-03 8.97977600e-02
        2 -1    0    0  501    0 +0.0000000000e+00 +0.0000000000e+00 +1.3081071595e+03 1.3081071595e+03 0.0000000000e+00 0.0000e+00 -1.0000e+00
       -2 -1    0    0    0  501 -0.0000000000e+00 -0.0000000000e+00 -1.0492154645e+02 1.0492154645e+02 0.0000000000e+00 0.0000e+00 1.0000e+00
      -13  1    1    2    0    0 +2.0146324846e+02 +1.7113710308e+02 +1.0965992178e+03 1.1280093940e+03 0.0000000000e+00 0.0000e+00 1.0000e+00
       13  1    1    2    0    0 -2.0146324846e+02 -1.7113710308e+02 +1.0658639528e+02 2.8501931195e+02 0.0000000000e+00 0.0000e+00 -1.0000e+00
<mgrwt>
<rscale>  0 0.74094163E+03</rscale>
<asrwt>0</asrwt>
<pdfrwt beam="1">  1        2 0.20124724E+00 0.74094163E+03</pdfrwt>
<pdfrwt beam="2">  1       -2 0.16141777E-01 0.74094163E+03</pdfrwt>
<totfact> 0.58218827E+02</totfact>
</mgrwt>
<rwgt>
<wgt id='morphing_basis_vector_1'> +4.0923168e-04 </wgt>
<wgt id='morphing_basis_vector_2'> +4.6584301e-04 </wgt>
<wgt id='morphing_basis_vector_3'> +3.1982392e-04 </wgt>
<wgt id='morphing_basis_vector_4'> +4.2988665e-05 </wgt>
<wgt id='morphing_basis_vector_5'> +2.2394254e-04 </wgt>
</rwgt>
</event>
<event>
 4      1 +5.9529000e-06 6.26146700e+02 7.81860800e-03 9.15484200e-02
        2 -1    0    0  501    0 +0.0000000000e+00 +0.0000000000e+00 +1.1792094219e+03 1.1792094219e+03 0.0000000000e+00 0.0000e+00 -1.0000e+00
       -2 -1    0    0    0  501 -0.0000000000e+00 -0.0000000000e+00 -8.3119177227e+01 8.3119177227e+01 0.0000000000e+00 0.0000e+00 1.0000e+00
      -13  1    1    2    0    0 -1.8047095948e+02 -2.1414506893e+02 +2.6589468113e+02 3.8617076432e+02 0.0000000000e+00 0.0000e+00 1.0000e+00
       13  1    1    2    0    0 +1.8047095948e+02 +2.1414506893e+02 +8.3019556356e+02 8.7615783482e+02 0.0000000000e+00 0.0000e+00 -1.0000e+00
<mgrwt>
<rscale>  0 0.62614668E+03</rscale>
<asrwt>0</asrwt>
<pdfrwt beam="1">  1        2 0.18141682E+00 0.62614668E+03</pdfrwt>
<pdfrwt beam="2">  1       -2 0.12787567E-01 0.62614668E+03</pdfrwt>
<totfact> 0.10088274E+03</totfact>
</mgrwt>
<rwgt>
<wgt id='morphing_basis_vector_1'> +1.8131895e-04 </wgt>
<wgt id='morphing_basis_vector_2'> +1.0636132e-04 </wgt>
<wgt id='morphing_basis_vector_3'> +1.4617189e-04 </wgt>
<wgt id='morphing_basis_vector_4'> +6.5417281e-05 </wgt>
<wgt id='morphing_basis_vector_5'> +1.0088249e-04 </wgt>
</rwgt>
</event>
<event>
 4      1 +5.9529000e-06 6.92046300e+02 7.81860800e-03 9.04999200e-02
        2 -1    0    0  501    0 +0.0000000000e+00 +0.0000000000e+00 +1.9842173338e+03 1.9842173338e+03 0.0000000000e+00 0.0000e+00 -1.0000e+00
       -2 -1    0    0    0  501 -0.0000000000e+00 -0.0000000000e+00 -6.0342193907e+01 6.0342193907e+01 0.0000000000e+00 0.0000e+00 1.0000e+00
      -13  1    1    2    0    0 -3.1324703281e+02 +3.6613013305e+01 +5.4133878177e+02 6.2650769585e+02 0.0000000000e+00 0.0000e+00 1.0000e+00
       13  1    1    2    0    0 +3.1324703281e+02 -3.6613013305e+01 +1.3825363581e+03 1.4180518318e+03 0.0000000000e+00 0.0000e+00 -1.0000e+00
<mgrwt>
<rscale>  0 0.69204632E+03</rscale>
<asrwt>0</asrwt>
<pdfrwt beam="1">  1        2 0.30526415E+00 0.69204632E+03</pdfrwt>
<pdfrwt beam="2">  1       -2 0.92834160E-02 0.69204632E+03</pdfrwt>
<totfact> 0.59817236E+02</totfact>
</mgrwt>
<rwgt>
<wgt id='morphing_basis_vector_1'> +2.5404264e-04 </wgt>
<wgt id='morphing_basis_vector_2'> +1.5275244e-04 </wgt>
<wgt id='morphing_basis_vector_3'> +2.1455072e-04 </wgt>
<wgt id='morphing_basis_vector_4'> +1.0473154e-04 </wgt>
<wgt id='morphing_basis_vector_5'> +1.6462549e-04 </wgt>
</rwgt>
</event>
<event>
 4      1 +5.9529000e-06 6.34691200e+02 7.81860800e-03 9.14050200e-02
        2 -1    0    0  501    0 +0.0000000000e+00 +0.0000000000e+00 +1.1721288028e+03 1.1721288028e+03 0.0000000000e+00 0.0000e+00 1.0000e+00
       -2 -1    0    0    0  501 -0.0000000000e+00 -0.0000000000e+00 -8.5919091965e+01 8.5919091965e+01 0.0000000000e+00 0.0000e+00 -1.0000e+00
      -13  1    1    2    0    0 +2.9486648528e+02 +1.1113951584e+02 +4.6867533941e+02 5.6476084309e+02 0.0000000000e+00 0.0000e+00 -1.0000e+00
       13  1    1    2    0    0 -2.9486648528e+02 -1.1113951584e+02 +6.1753437144e+02 6.9328705168e+02 0.0000000000e+00 0.0000e+00 1.0000e+00
<mgrwt>
<rscale>  0 0.63469124E+03</rscale>
<asrwt>0</asrwt>
<pdfrwt beam="1">  1        2 0.18032750E+00 0.63469124E+03</pdfrwt>
<pdfrwt beam="2">  1       -2 0.13218323E-01 0.63469124E+03</pdfrwt>
<totfact> 0.96558744E+02</totfact>
</mgrwt>
<rwgt>
<wgt id='morphing_basis_vector_1'> +1.9278929e-04 </wgt>
<wgt id='morphing_basis_vector_2'> +1.2128651e-04 </wgt>
<wgt id='morphing_basis_vector_3'> +1.5436110e-04 </wgt>
<wgt id='morphing_basis_vector_4'> +6.7047669e-05 </wgt>
<wgt id='morphing_basis_vector_5'> +1.0792364e-04 </wgt>
</rwgt>
</event>
<event>
 4      1 +5.9529000e-06 6.85792400e+02 7.81860800e-03 9.05940800e-02
        2 -1    0    0  501    0 +0.0000000000e+00 +0.0000000000e+00 +2.9628234350e+02 2.9628234350e+02 0.0000000000e+00 0.0000e+00 1.0000e+00
       -2 -1    0    0    0  501 -0.0000000000e+00 -0.0000000000e+00 -3.9684378954e+02 3.9684378954e+02 0.0000000000e+00 0.0000e+00 -1.0000e+00
      -13  1    1    2    0    0 +2.7734503581e+02 +1.2680565354e+02 -2.0873051673e+02 3.6955158134e+02 0.0000000000e+00 0.0000e+00 -1.0000e+00
       13  1    1    2    0    0 -2.7734503581e+02 -1.2680565354e+02 +1.0816907069e+02 3.2357455170e+02 0.0000000000e+00 0.0000e+00 1.0000e+00
<mgrwt>
<rscale>  0 0.68579241E+03</rscale>
<asrwt>0</asrwt>
<pdfrwt beam="1">  1        2 0.45581899E-01 0.68579241E+03</pdfrwt>
<pdfrwt beam="2">  1       -2 0.61052891E-01 0.68579241E+03</pdfrwt>
<totfact> 0.34595232E+02</totfact>
</mgrwt>
<rwgt>
<wgt id='morphing_basis_vector_1'> +2.4598474e-04 </wgt>
<wgt id='morphing_basis_vector_2'> +1.4684478e-04 </wgt>
<wgt id='morphing_basis_vector_3'> +2.0706745e-04 </wgt>
<wgt id='morphing_basis_vector_4'> +1.0071269e-04 </wgt>
<wgt id='morphing_basis_vector_5'> +1.5761601e-04 </wgt>
</rwgt>
</event>
<event>
 4      1 +5.9529000e-06 7.03313300e+02 7.81860800e-03 9.03328700e-02
        2 -1    0    0  501    0 +0.0000000000e+00 +0.0000000000e+00 +2.6862793912e+02 2.6862793912e+02 0.0000000000e+00 0.0000e+00 1.0000e+00
       -2 -1    0    0    0  501 -0.0000000000e+00 -0.0000000000e+00 -4.6034825707e+02 4.6034825707e+02 0.0000000000e+00 0.0000e+00 -1.0000e+00
      -13  1    1    2    0    0 +1.0667000102e+02 -1.5571430084e+02 -4.0339693386e+02 4.4537009201e+02 0.0000000000e+00 0.0000e+00 -1.0000e+00
       13  1    1    2    0    0 -1.0667000102e+02 +1.5571430084e+02 +2.1167661591e+02 2.8360610418e+02 0.0000000000e+00 0.0000e+00 1.0000e+00
<mgrwt>
<rscale>  0 0.70331331E+03</rscale>
<asrwt>0</asrwt>
<pdfrwt beam="1">  1        2 0.41327376E-01 0.70331331E+03</pdfrwt>
<pdfrwt beam="2">  1       -2 0.70822808E-01 0.70331331E+03</pdfrwt>
<totfact> 0.28286574E+02</totfact>
</mgrwt>
<rwgt>
<wgt id='morphing_basis_vector_1'> +2.6679551e-04 </wgt>
<wgt id='morphing_basis_vector_2'> +1.5678754e-04 </wgt>
<wgt id='morphing_basis_vector_3'> +2.2776851e-04 </wgt>
<wgt id='morphing_basis_vector_4'> +1.1467258e-04 </wgt>
<wgt id='morphing_basis_vector_5'> +1.7786867e-04 </wgt>
</rwgt>
</event>
<event>
 4      1 +5.9529000e-06 7.16026600e+02 7.81860800e-03 9.01482300e-02
        2 -1    0    0  501    0 +0.0000000000e+00 +0.0000000000e+00 +7.8546712222e+01 7.8546712222e+01 0.0000000000e+00 0.0000e+00 -1.0000e+00
       -2 -1    0    0    0  501 -0.0000000000e+00 -0.0000000000e+00 -1.6318127040e+03 1.6318127040e+03 0.0000000000e+00 0.0000e+00 1.0000e+00
      -13  1    1    2    0    0 -2.2223695843e+02 +9.7387109419e+01 -1.4054508576e+03 1.4262417845e+03 0.0000000000e+00 0.0000e+00 1.0000e+00
       13  1    1    2    0    0 +2.2223695843e+02 -9.7387109419e+01 -1.4781513426e+02 2.8411763178e+02 0.0000000000e+00 0.0000e+00 -1.0000e+00
<mgrwt>
<rscale>  0 0.71602660E+03</rscale>
<asrwt>0</asrwt>
<pdfrwt beam="1">  1        2 0.12084110E-01 0.71602660E+03</pdfrwt>
<pdfrwt beam="2">  1       -2 0.25104811E+00 0.71602660E+03</pdfrwt>
<totfact> 0.34853174E+01</totfact>
</mgrwt>
<rwgt>
<wgt id='morphing_basis_vector_1'> +2.8391243e-04 </wgt>
<wgt id='morphing_basis_vector_2'> +1.6789362e-04 </wgt>
<wgt id='morphing_basis_vector_3'> +2.4414072e-04 </wgt>
<wgt id='morphing_basis_vector_4'> +1.2441055e-04 </wgt>
<wgt id='morphing_basis_vector_5'> +1.9364531e-04 </wgt>
</rwgt>
</event>
<event>
 4      1 +5.9529000e-06 7.23760700e+02 7.81860800e-03 9.00378400e-02
        2 -1    0    0  501    0 +0.0000000000e+00 +0.0000000000e+00 +2.4889522198e+03 2.4889522198e+03 0.0000000000e+00 0.0000e+00 -1.0000e+00
       -2 -1    0    0    0  501 -0.0000000000e+00 -0.0000000000e+00 -5.2615466212e+01 5.2615466212e+01 0.0000000000e+00 0.0000e+00 1.0000e+00
      -13  1    1    2    0    0 -7.8929023732e+01 -3.5122856641e+02 +1.0883770959e+03 1.1463664334e+03 0.0000000000e+00 0.0000e+00 1.0000e+00
       13  1    1    2    0    0 +7.8929023732e+01 +3.5122856641e+02 +1.3479596577e+03 1.3952012527e+03 0.0000000000e+00 0.0000e+00 -1.0000e+00
<mgrwt>
<rscale>  0 0.72376068E+03</rscale>
<asrwt>0</asrwt>
<pdfrwt beam="1">  1        2 0.38291563E+00 0.72376068E+03</pdfrwt>
<pdfrwt beam="2">  1       -2 0.80946891E-02 0.72376068E+03</pdfrwt>
<totfact> 0.38322802E+02</totfact>
</mgrwt>
<rwgt>
<wgt id='morphing_basis_vector_1'> +3.0140546e-04 </wgt>
<wgt id='morphing_basis_vector_2'> +1.9545139e-04 </wgt>
<wgt id='morphing_basis_vector_3'> +2.5729996e-04 </wgt>
<wgt id='morphing_basis_vector_4'> +1.2324098e-04 </wgt>
<wgt id='morphing_basis_vector_5'> +2.0348780e-04 </wgt>
</rwgt>
</event>
<event>
 4      1 +5.9529000e-06 7.12112900e+02 7.81860800e-03 9.02046400e-02
        2 -1    0    0  501    0 +0.0000000000e+00 +0.0000000000e+00 +5.1713361081e+02 5.1713361081e+02 0.0000000000e+00 0.0000e+00 -1.0000e+00
       -2 -1    0    0    0  501 -0.0000000000e+00 -0.0000000000e+00 -2.4515174849e+02 2.4515174849e+02 0.0000000000e+00 0.0000e+00 1.0000e+00
      -13  1    1    2    0    0 +1.1456126108e+02 -9.4345896684e+00 -2.2474297818e+02 2.5243355614e+02 0.0000000000e+00 0.0000e+00 1.0000e+00
       13  1    1    2    0    0 -1.1456126108e+02 +9.4345896684e+00 +4.9672484050e+02 5.0985180317e+02 0.0000000000e+00 0.0000e+00 -1.0000e+00
<mgrwt>
<rscale>  0 0.71211294E+03</rscale>
<asrwt>0</asrwt>
<pdfrwt beam="1">  1        2 0.79559016E-01 0.71211294E+03</pdfrwt>
<pdfrwt beam="2">  1       -2 0.37715654E-01 0.71211294E+03</pdfrwt>
<totfact> 0.46893915E+02</totfact>
</mgrwt>
<rwgt>
<wgt id='morphing_basis_vector_1'> +2.7836515e-04 </wgt>
<wgt id='morphing_basis_vector_2'> +1.6383167e-04 </wgt>
<wgt id='morphing_basis_vector_3'> +2.3893384e-04 </wgt>
<wgt id='morphing_basis_vector_4'> +1.2155518e-04 </wgt>
<wgt id='morphing_basis_vector_5'> +1.8869279e-04 </wgt>
</rwgt>
</event>
<event>
 4      1 +5.9529000e-06 7.02039000e+02 7.81860800e-03 9.03516000e-02
        2 -1    0    0  501    0 +0.0000000000e+00 +0.0000000000e+00 +3.8376096758e+02 3.8376096758e+02 0.0000000000e+00 0.0000e+00 -1.0000e+00
       -2 -1    0    0    0  501 -0.0000000000e+00 -0.0000000000e+00 -3.2107141551e+02 3.2107141551e+02 0.0000000000e+00 0.0000e+00 1.0000e+00
      -13  1    1    2    0    0 +1.2450823574e+02 +7.8567549071e+01 -2.8857580335e+02 3.2396165639e+02 0.0000000000e+00 0.0000e+00 1.0000e+00
       13  1    1    2    0    0 -1.2450823574e+02 -7.8567549071e+01 +3.5126535542e+02 3.8087072670e+02 0.0000000000e+00 0.0000e+00 -1.0000e+00
<mgrwt>
<rscale>  0 0.70203896E+03</rscale>
<asrwt>0</asrwt>
<pdfrwt beam="1">  1        2 0.59040149E-01 0.70203896E+03</pdfrwt>
<pdfrwt beam="2">  1       -2 0.49395602E-01 0.70203896E+03</pdfrwt>
<totfact> 0.39490628E+02</totfact>
</mgrwt>
<rwgt>
<wgt id='morphing_basis_vector_1'> +2.6509321e-04 </wgt>
<wgt id='morphing_basis_vector_2'> +1.5560630e-04 </wgt>
<wgt id='morphing_basis_vector_3'> +2.2616448e-04 </wgt>
<wgt id='morphing_basis_vector_4'> +1.1376214e-04 </wgt>
<wgt id='morphing_basis_vector_5'> +1.7634025e-04 </wgt>
</rwgt>
</event>
<event>
 4      1 +5.9529000e-06 6.48934900e+02 7.81860800e-03 9.11711500e-02
        2 -1    0    0  501    0 +0.0000000000e+00 +0.0000000000e+00 +1.3939371886e+03 1.3939371886e+03 0.0000000000e+00 0.0000e+00 -1.0000e+00
       -2 -1    0    0    0  501 -0.0000000000e+00 -0.0000000000e+00 -7.5526452990e+01 7.5526452990e+01 0.0000000000e+00 0.0000e+00 1.0000e+00
      -13  1    1    2    0    0 +7.9030582092e+01 +3.1453908371e+02 +6.3673577280e+02 7.1457197849e+02 0.0000000000e+00 0.0000e+00 1.0000e+00
       13  1    1    2    0    0 -7.9030582092e+01 -3.1453908371e+02 +6.8167496277e+02 7.5489166306e+02 0.0000000000e+00 0.0000e+00 -1.0000e+00
<mgrwt>
<rscale>  0 0.64893492E+03</rscale>
<asrwt>0</asrwt>
<pdfrwt beam="1">  1        2 0.21445186E+00 0.64893492E+03</pdfrwt>
<pdfrwt beam="2">  1       -2 0.11619455E-01 0.64893492E+03</pdfrwt>
<totfact> 0.88745550E+02</totfact>
</mgrwt>
<rwgt>
<wgt id='morphing_basis_vector_1'> +2.0934552e-04 </wgt>
<wgt id='morphing_basis_vector_2'> +1.3656857e-04 </wgt>
<wgt id='morphing_basis_vector_3'> +1.6849933e-04 </wgt>
<wgt id='morphing_basis_vector_4'> +7.2870386e-05 </wgt>
<wgt id='morphing_basis_vector_5'> +1.2041868e-04 </wgt>
</rwgt>
</event>
<event>
 4      1 +5.9529000e-06 6.36836400e+02 7.81860800e-03 9.13693900e-02
        2 -1    0    0  501    0 +0.0000000000e+00 +0.0000000000e+00 +9.4228941062e+02 9.4228941062e+02 0.0000000000e+00 0.0000e+00 1.0000e+00
       -2 -1    0    0    0  501 -0.0000000000e+00 -0.0000000000e+00 -1.0759978457e+02 1.0759978457e+02 0.0000000000e+00 0.0000e+00 -1.0000e+00
      -13  1    1    2    0    0 -1.3619525018e+02 -1.2497170710e+02 -1.0094797686e+01 1.8511882316e+02 0.0000000000e+00 0.0000e+00 -1.0000e+00
       13  1    1    2    0    0 +1.3619525018e+02 +1.2497170710e+02 +8.4478442375e+02 8.6477037203e+02 0.0000000000e+00 0.0000e+00 1.0000e+00
<mgrwt>
<rscale>  0 0.63683636E+03</rscale>
<asrwt>0</asrwt>
<pdfrwt beam="1">  1        2 0.14496760E+00 0.63683636E+03</pdfrwt>
<pdfrwt beam="2">  1       -2 0.16553814E-01 0.63683636E+03</pdfrwt>
<totfact> 0.92394821E+02</totfact>
</mgrwt>
<rwgt>
<wgt id='morphing_basis_vector_1'> +1.9081855e-04 </wgt>
<wgt id='morphing_basis_vector_2'> +1.0990664e-04 </wgt>
<wgt id='morphing_basis_vector_3'> +1.5575301e-04 </wgt>
<wgt id='morphing_basis_vector_4'> +7.1791647e-05 </wgt>
<wgt id='morphing_basis_vector_5'> +1.0977819e-04 </wgt>
</rwgt>
</event>
<event>
 4      1 +5.9529000e-06 7.18490900e+02 7.81860800e-03 9.01129000e-02
        2 -1    0    0  501    0 +0.0000000000e+00 +0.0000000000e+00 +9.3632733436e+02 9.3632733436e+02 0.0000000000e+00 0.0000e+00 -1.0000e+00
       -2 -1    0    0    0  501 -0.0000000000e+00 -0.0000000000e+00 -1.3783352429e+02 1.3783352429e+02 0.0000000000e+00 0.0000e+00 1.0000e+00
      -13  1    1    2    0    0 -2.8633651526e+02 -1.9400372595e+02 +5.4443556319e+02 6.4500862639e+02 0.0000000000e+00 0.0000e+00 -1.0000e+00
       13  1    1    2    0    0 +2.8633651526e+02 +1.9400372595e+02 +2.5405824688e+02 4.2915223227e+02 0.0000000000e+00 0.0000e+00 1.0000e+00
<mgrwt>
<rscale>  0 0.71849091E+03</rscale>
<asrwt>0</asrwt>
<pdfrwt beam="1">  1        2 0.14405036E+00 0.71849091E+03</pdfrwt>
<pdfrwt beam="2">  1       -2 0.21205158E-01 0.71849091E+03</pdfrwt>
<totfact> 0.61731397E+02</totfact>
</mgrwt>
<rwgt>
<wgt id='morphing_basis_vector_1'> +3.1239546e-04 </wgt>
<wgt id='morphing_basis_vector_2'> +2.4728934e-04 </wgt>
<wgt id='morphing_basis_vector_3'> +2.5744178e-04 </wgt>
<wgt id='morphing_basis_vector_4'> +9.8916121e-05 </wgt>
<wgt id='morphing_basis_vector_5'> +1.9599694e-04 </wgt>
</rwgt>
</event>
<event>
 4      1 +5.9529000e-06 6.50868700e+02 7.81860800e-03 9.11398900e-02
        2 -1    0    0  501    0 +0.0000000000e+00 +0.0000000000e+00 +2.2820714901e+02 2.2820714901e+02 0.0000000000e+00 0.0000e+00 -1.0000e+00
       -2 -1    0    0    0  501 -0.0000000000e+00 -0.0000000000e+00 -4.6408499529e+02 4.6408499529e+02 0.0000000000e+00 0.0000e+00 1.0000e+00
      -13  1    1    2    0    0 +1.7078751604e+02 +2.3612531365e+02 -2.7201666127e+02 3.9864345397e+02 0.0000000000e+00 0.0000e+00 1.0000e+00
       13  1    1    2    0    0 -1.7078751604e+02 -2.3612531365e+02 +3.6138815003e+01 2.9364869033e+02 0.0000000000e+00 0.0000e+00 -1.0000e+00
<mgrwt>
<rscale>  0 0.65086869E+03</rscale>
<asrwt>0</asrwt>
<pdfrwt beam="1">  1        2 0.35108793E-01 0.65086869E+03</pdfrwt>
<pdfrwt beam="2">  1       -2 0.71397690E-01 0.65086869E+03</pdfrwt>
<totfact> 0.33531883E+02</totfact>
</mgrwt>
<rwgt>
<wgt id='morphing_basis_vector_1'> +2.0625855e-04 </wgt>
<wgt id='morphing_basis_vector_2'> +1.2198456e-04 </wgt>
<wgt id='morphing_basis_vector_3'> +1.6943100e-04 </wgt>
<wgt id='morphing_basis_vector_4'> +7.8683290e-05 </wgt>
<wgt id='morphing_basis_vector_5'> +1.2225415e-04 </wgt>
</rwgt>
</event>
<event>
 4      1 +5.9529000e-06 6.62951000e+02 7.81860800e-03 9.09470900e-02
        2 -1    0    0  501    0 +0.0000000000e+00 +0.0000000000e+00 +5.9003379848e+02 5.9003379848e+02 0.0000000000e+00 0.0000e+00 1.0000e+00
       -2 -1    0    0    0  501 -0.0000000000e+00 -0.0000000000e+00 -1.8621982562e+02 1.8621982562e+02 0.0000000000e+00 0.0000e+00 -1.0000e+00
      -13  1    1    2    0    0 -2.1882323972e+02 +2.4008490502e+02 +2.7914795034e+02 4.2830824185e+02 0.0000000000e+00 0.0000e+00 -1.0000e+00
       13  1    1    2    0    0 +2.1882323972e+02 -2.4008490502e+02 +1.2466602252e+02 3.4794538225e+02 0.0000000000e+00 0.0000e+00 1.0000e+00
<mgrwt>
<rscale>  0 0.66295095E+03</rscale>
<asrwt>0</asrwt>
<pdfrwt beam="1">  1        2 0.90774430E-01 0.66295095E+03</pdfrwt>
<pdfrwt beam="2">  1       -2 0.28649204E-01 0.66295095E+03</pdfrwt>
<totfact> 0.65941440E+02</totfact>
</mgrwt>
<rwgt>
<wgt id='morphing_basis_vector_1'> +2.3327812e-04 </wgt>
<wgt id='morphing_basis_vector_2'> +1.7312708e-04 </wgt>
<wgt id='morphing_basis_vector_3'> +1.8509299e-04 </wgt>
<wgt id='morphing_basis_vector_4'> +7.2561846e-05 </wgt>
<wgt id='morphing_basis_vector_5'> +1.3355386e-04 </wgt>
</rwgt>
</event>
<event>
 4      1 +5.9529000e-06 6.92174400e+02 7.81860800e-03 9.04980000e-02
        2 -1    0    0  501    0 +0.0000000000e+00 +0.0000000000e+00 +9.4923160911e+02 9.4923160911e+02 0.0000000000e+00 0.0000e+00 -1.0000e+00
       -2 -1    0    0    0  501 -0.0000000000e+00 -0.0000000000e+00 -1.2618241801e+02 1.2618241801e+02 0.0000000000e+00 0.0000e+00 1.0000e+00
      -13  1    1    2    0    0 +1.8273921032e+02 -2.6579276389e+02 +2.1662086455e+02 3.8854087467e+02 0.0000000000e+00 0.0000e+00 1.0000e+00
       13  1    1    2    0    0 -1.8273921032e+02 +2.6579276389e+02 +6.0642832655e+02 6.8687315246e+02 0.0000000000e+00 0.0000e+00 -1.0000e+00
<mgrwt>
<rscale>  0 0.69217437E+03</rscale>
<asrwt>0</asrwt>
<pdfrwt beam="1">  1        2 0.14603563E+00 0.69217437E+03</pdfrwt>
<pdfrwt beam="2">  1       -2 0.19412680E-01 0.69217437E+03</pdfrwt>
<totfact> 0.70263854E+02</totfact>
</mgrwt>
<rwgt>
<wgt id='morphing_basis_vector_1'> +2.5462183e-04 </wgt>
<wgt id='morphing_basis_vector_2'> +1.5414601e-04 </wgt>
<wgt id='morphing_basis_vector_3'> +2.1484056e-04 </wgt>
<wgt id='morphing_basis_vector_4'> +1.0438966e-04 </wgt>
<wgt id='morphing_basis_vector_5'> +1.6476098e-04 </wgt>
</rwgt>
</event>
<event>
 4      1 +5.9529000e-06 7.24131300e+02 7.81860800e-03 9.00325900e-02
        2 -1    0    0  501    0 +0.0000000000e+00 +0.0000000000e+00 +6.6613607277e+02 6.6613607277e+02 0.0000000000e+00 0.0000e+00 1.0000e+00
       -2 -1    0    0    0  501 -0.0000000000e+00 -0.0000000000e+00 -1.9679391632e+02 1.9679391632e+02 0.0000000000e+00 0.0000e+00 -1.0000e+00
      -13  1    1    2    0    0 +1.0249614903e+02 -3.1697866673e+02 +6.5677317345e+01 3.3955035818e+02 0.0000000000e+00 0.0000e+00 -1.0000e+00
       13  1    1    2    0    0 -1.0249614903e+02 +3.1697866673e+02 +4.0366483910e+02 5.2337963091e+02 0.0000000000e+00 0.0000e+00 1.0000e+00
<mgrwt>
<rscale>  0 0.72413128E+03</rscale>
<asrwt>0</asrwt>
<pdfrwt beam="1">  1        2 0.10248247E+00 0.72413128E+03</pdfrwt>
<pdfrwt beam="2">  1       -2 0.30275987E-01 0.72413128E+03</pdfrwt>
<totfact> 0.51725942E+02</totfact>
</mgrwt>
<rwgt>
<wgt id='morphing_basis_vector_1'> +2.9702092e-04 </wgt>
<wgt id='morphing_basis_vector_2'> +1.8067901e-04 </wgt>
<wgt id='morphing_basis_vector_3'> +2.5577512e-04 </wgt>
<wgt id='morphing_basis_vector_4'> +1.2897965e-04 </wgt>
<wgt id='morphing_basis_vector_5'> +2.0414677e-04 </wgt>
</rwgt>
</event>
<event>
 4      1 +5.9529000e-06 7.48738300e+02 7.81860800e-03 8.96910900e-02
        2 -1    0    0  501    0 +0.0000000000e+00 +0.0000000000e+00 +4.1865432002e+02 4.1865432002e+02 0.0000000000e+00 0.0000e+00 1.0000e+00
       -2 -1    0    0    0  501 -0.0000000000e+00 -0.0000000000e+00 -3.3476846888e+02 3.3476846888e+02 0.0000000000e+00 0.0000e+00 -1.0000e+00
      -13  1    1    2    0    0 -2.3329212078e+02 +2.9169709037e+02 +1.6489219473e+01 3.7387738700e+02 0.0000000000e+00 0.0000e+00 -1.0000e+00
       13  1    1    2    0    0 +2.3329212078e+02 -2.9169709037e+02 +6.7396631667e+01 3.7954540191e+02 0.0000000000e+00 0.0000e+00 1.0000e+00
<mgrwt>
<rscale>  0 0.74873831E+03</rscale>
<asrwt>0</asrwt>
<pdfrwt beam="1">  1        2 0.64408356E-01 0.74873831E+03</pdfrwt>
<pdfrwt beam="2">  1       -2 0.51502842E-01 0.74873831E+03</pdfrwt>
<totfact> 0.32926924E+02</totfact>
</mgrwt>
<rwgt>
<wgt id='morphing_basis_vector_1'> +3.4020311e-04 </wgt>
<wgt id='morphing_basis_vector_2'> +2.2463229e-04 </wgt>
<wgt id='morphing_basis_vector_3'> +2.9444835e-04 </wgt>
<wgt id='morphing_basis_vector_4'> +1.4261164e-04 </wgt>
<wgt id='morphing_basis_vector_5'> +2.3844729e-04 </wgt>
</rwgt>
</event>
<event>
 4      1 +5.9529000e-06 7.41065300e+02 7.81860800e-03 8.97960600e-02
        2 -1    0    0  501    0 +0.0000000000e+00 +0.0000000000e+00 +5.3605621633e+02 5.3605621633e+02 0.0000000000e+00 0.0000e+00 -1.0000e+00
       -2 -1    0    0    0  501 -0.0000000000e+00 -0.0000000000e+00 -2.5611950352e+02 2.5611950352e+02 0.0000000000e+00 0.0000e+00 1.0000e+00
      -13  1    1    2    0    0 -2.7622006525e+02 +1.0110569157e+02 +3.8084137233e+02 4.8120685385e+02 0.0000000000e+00 0.0000e+00 1.0000e+00
       13  1    1    2    0    0 +2.7622006525e+02 -1.0110569157e+02 -1.0090465952e+02 3.1096886601e+02 0.0000000000e+00 0.0000e+00 -1.0000e+00
<mgrwt>
<rscale>  0 0.74106532E+03</rscale>
<asrwt>0</asrwt>
<pdfrwt beam="1">  1        2 0.82470187E-01 0.74106532E+03</pdfrwt>
<pdfrwt beam="2">  1       -2 0.39403001E-01 0.74106532E+03</pdfrwt>
<totfact> 0.41462353E+02</totfact>
</mgrwt>
<rwgt>
<wgt id='morphing_basis_vector_1'> +3.9404414e-04 </wgt>
<wgt id='morphing_basis_vector_2'> +4.1869958e-04 </wgt>
<wgt id='morphing_basis_vector_3'> +3.1297663e-04 </wgt>
<wgt id='morphing_basis_vector_4'> +6.0682766e-05 </wgt>
<wgt id='morphing_basis_vector_5'> +2.2471466e-04 </wgt>
</rwgt>
</event>
<event>
 4      1 +5.9529000e-06 7.26525700e+02 7.81860800e-03 8.99987300e-02
        2 -1    0    0  501    0 +0.0000000000e+00 +0.0000000000e+00 +2.4694547320e+02 2.4694547320e+02 0.0000000000e+00 0.0000e+00 1.0000e+00
       -2 -1    0    0    0  501 -0.0000000000e+00 -0.0000000000e+00 -5.3436859631e+02 5.3436859631e+02 0.0000000000e+00 0.0000e+00 -1.0000e+00
      -13  1    1    2    0    0 +2.5153615466e+02 +1.8705918757e+02 -3.4112596442e+02 4.6328015321e+02 0.0000000000e+00 0.0000e+00 -1.0000e+00
       13  1    1    2    0    0 -2.5153615466e+02 -1.8705918757e+02 +5.3702841315e+01 3.1803391630e+02 0.0000000000e+00 0.0000e+00 1.0000e+00
<mgrwt>
<rscale>  0 0.72652572E+03</rscale>
<asrwt>0</asrwt>
<pdfrwt beam="1">  1        2 0.37991611E-01 0.72652572E+03</pdfrwt>
<pdfrwt beam="2">  1       -2 0.82210553E-01 0.72652572E+03</pdfrwt>
<totfact> 0.22357387E+02</totfact>
</mgrwt>
<rwgt>
<wgt id='morphing_basis_vector_1'> +2.9950525e-04 </wgt>
<wgt id='morphing_basis_vector_2'> +1.8002261e-04 </wgt>
<wgt id='morphing_basis_vector_3'> +2.5868488e-04 </wgt>
<wgt id='morphing_basis_vector_4'> +1.3198430e-04 </wgt>
<wgt id='morphing_basis_vector_5'> +2.0737538e-04 </wgt>
</rwgt>
</event>
<event>
 4      1 +5.9529000e-06 6.24254400e+02 7.81860800e-03 9.15805100e-02
        2 -1    0    0  501    0 +0.0000000000e+00 +0.0000000000e+00 +1.8629976820e+03 1.8629976820e+03 0.0000000000e+00 0.0000e+00 -1.0000e+00
       -2 -1    0    0    0  501 -0.0000000000e+00 -0.0000000000e+00 -5.2293884542e+01 5.2293884542e+01 0.0000000000e+00 0.0000e+00 1.0000e+00
      -13  1    1    2    0    0 +2.9869453993e+02 -5.8902448499e+00 +1.1826783517e+03 1.2198283514e+03 0.0000000000e+00 0.0000e+00 1.0000e+00
       13  1    1    2    0    0 -2.9869453993e+02 +5.8902448499e+00 +6.2802544570e+02 6.9546321514e+02 0.0000000000e+00 0.0000e+00 -1.0000e+00
<mgrwt>
<rscale>  0 0.62425439E+03</rscale>
<asrwt>0</asrwt>
<pdfrwt beam="1">  1        2 0.28661498E+00 0.62425439E+03</pdfrwt>
<pdfrwt beam="2">  1       -2 0.80452144E-02 0.62425439E+03</pdfrwt>
<totfact> 0.87496544E+02</totfact>
</mgrwt>
<rwgt>
<wgt id='morphing_basis_vector_1'> +1.9509019e-04 </wgt>
<wgt id='morphing_basis_vector_2'> +1.5347128e-04 </wgt>
<wgt id='morphing_basis_vector_3'> +1.4618159e-04 </wgt>
<wgt id='morphing_basis_vector_4'> +5.1295103e-05 </wgt>
<wgt id='morphing_basis_vector_5'> +9.9311845e-05 </wgt>
</rwgt>
</event>
<event>
 4      1 +5.9529000e-06 6.99323900e+02 7.81860800e-03 9.03916400e-02
        2 -1    0    0  501    0 +0.0000000000e+00 +0.0000000000e+00 +5.4240359920e+02 5.4240359920e+02 0.0000000000e+00 0.0000e+00 1.0000e+00
       -2 -1    0    0    0  501 -0.0000000000e+00 -0.0000000000e+00 -2.2541049887e+02 2.2541049887e+02 0.0000000000e+00 0.0000e+00 -1.0000e+00
      -13  1    1    2    0    0 +3.2143822581e+02 +1.3068039643e+02 +1.1109961880e+02 3.6433916111e+02 0.0000000000e+00 0.0000e+00 -1.0000e+00
       13  1    1    2    0    0 -3.2143822581e+02 -1.3068039643e+02 +2.0589348154e+02 4.0347493697e+02 0.0000000000e+00 0.0000e+00 1.0000e+00
<mgrwt>
<rscale>  0 0.69932386E+03</rscale>
<asrwt>0</asrwt>
<pdfrwt beam="1">  1        2 0.83446707E-01 0.69932386E+03</pdfrwt>
<pdfrwt beam="2">  1       -2 0.34678538E-01 0.69932386E+03</pdfrwt>
<totfact> 0.51744892E+02</totfact>
</mgrwt>
<rwgt>
<wgt id='morphing_basis_vector_1'> +2.6731825e-04 </wgt>
<wgt id='morphing_basis_vector_2'> +1.7106310e-04 </wgt>
<wgt id='morphing_basis_vector_3'> +2.2479585e-04 </wgt>
<wgt id='morphing_basis_vector_4'> +1.0572660e-04 </wgt>
<wgt id='morphing_basis_vector_5'> +1.7295724e-04 </wgt>
</rwgt>
</event>
<event>
 4      1 +5.9529000e-06 6.25958300e+02 7.81860800e-03 9.15516100e-02
        2 -1    0    0  501    0 +0.0000000000e+00 +0.0000000000e+00 +7.7097007422e+02 7.7097007422e+02 0.0000000000e+00 0.0000e+00 -1.0000e+00
       -2 -1    0    0    0  501 -0.0000000000e+00 -0.0000000000e+00 -1.2705544910e+02 1.2705544910e+02 0.0000000000e+00 0.0000e+00 1.0000e+00
      -13  1    1    2    0    0 -1.0590780422e+02 -1.8572134326e+02 -5.9674713089e+00 2.1387961813e+02 0.0000000000e+00 0.0000e+00 1.0000e+00
       13  1    1    2    0    0 +1.0590780422e+02 +1.8572134326e+02 +6.4988209643e+02 6.8414590519e+02 0.0000000000e+00 0.0000e+00 -1.0000e+00
<mgrwt>
<rscale>  0 0.62595830E+03</rscale>
<asrwt>0</asrwt>
<pdfrwt beam="1">  1        2 0.11861078E+00 0.62595830E+03</pdfrwt>
<pdfrwt beam="2">  1       -2 0.19546993E-01 0.62595830E+03</pdfrwt>
<totfact> 0.91456012E+02</totfact>
</mgrwt>
<rwgt>
<wgt id='morphing_basis_vector_1'> +1.8032359e-04 </wgt>
<wgt id='morphing_basis_vector_2'> +1.0372484e-04 </wgt>
<wgt id='morphing_basis_vector_3'> +1.4591198e-04 </wgt>
<wgt id='morphing_basis_vector_4'> +6.6016759e-05 </wgt>
<wgt id='morphing_basis_vector_5'> +1.0073370e-04 </wgt>
</rwgt>
</event>
<event>
 4      1 +5.9529000e-06 7.05448600e+02 7.81860800e-03 9.03015700e-02
        2 -1    0    0  501    0 +0.0000000000e+00 +0.0000000000e+00 +1.1047586651e+03 1.1047586651e+03 0.0000000000e+00 0.0000e+00 -1.0000e+00
       -2 -1    0    0    0  501 -0.0000000000e+00 -0.0000000000e+00 -1.1261685068e+02 1.1261685068e+02 0.0000000000e+00 0.0000e+00 1.0000e+00
      -13  1    1    2    0    0 -1.8242144320e+02 -3.0055711499e+02 +4.4719194612e+02 5.6885217675e+02 0.0000000000e+00 0.0000e+00 1.0000e+00
       13  1    1    2    0    0 +1.8242144320e+02 +3.0055711499e+02 +5.4494986832e+02 6.4852333905e+02 0.0000000000e+00 0.0000e+00 -1.0000e+00
<mgrwt>
<rscale>  0 0.70544863E+03</rscale>
<asrwt>0</asrwt>
<pdfrwt beam="1">  1        2 0.16996286E+00 0.70544863E+03</pdfrwt>
<pdfrwt beam="2">  1       -2 0.17325670E-01 0.70544863E+03</pdfrwt>
<totfact> 0.68074997E+02</totfact>
</mgrwt>
<rwgt>
<wgt id='morphing_basis_vector_1'> +2.7648052e-04 </wgt>
<wgt id='morphing_basis_vector_2'> +1.7977621e-04 </wgt>
<wgt id='morphing_basis_vector_3'> +2.3295655e-04 </wgt>
<wgt id='morphing_basis_vector_4'> +1.0895721e-04 </wgt>
<wgt id='morphing_basis_vector_5'> +1.8025406e-04 </wgt>
</rwgt>
</event>
<event>
 4      1 +5.9529000e-06 6.31016000e+02 7.81860800e-03 9.14664000e-02
        2 -1    0    0  501    0 +0.0000000000e+00 +0.0000000000e+00 +9.9318492428e+01 9.9318492428e+01 0.0000000000e+00 0.0000e+00 -1.0000e+00
       -2 -1    0    0    0  501 -0.0000000000e+00 -0.0000000000e+00 -1.0022837350e+03 1.0022837350e+03 0.0000000000e+00 0.0000e+00 1.0000e+00
      -13  1    1    2    0    0 +1.0803817958e+02 +1.2197280941e+02 -9.2314695079e+02 9.3741661349e+02 0.0000000000e+00 0.0000e+00 1.0000e+00
       13  1    1    2    0    0 -1.0803817958e+02 -1.2197280941e+02 +2.0181708209e+01 1.6418561395e+02 0.0000000000e+00 0.0000e+00 -1.0000e+00
<mgrwt>
<rscale>  0 0.63101604E+03</rscale>
<asrwt>0</asrwt>
<pdfrwt beam="1">  1        2 0.15279767E-01 0.63101604E+03</pdfrwt>
<pdfrwt beam="2">  1       -2 0.15419750E+00 0.63101604E+03</pdfrwt>
<totfact> 0.13342063E+02</totfact>
</mgrwt>
<rwgt>
<wgt id='morphing_basis_vector_1'> +1.8506134e-04 </wgt>
<wgt id='morphing_basis_vector_2'> +1.0630691e-04 </wgt>
<wgt id='morphing_basis_vector_3'> +1.5041493e-04 </wgt>
<wgt id='morphing_basis_vector_4'> +6.8729237e-05 </wgt>
<wgt id='morphing_basis_vector_5'> +1.0487160e-04 </wgt>
</rwgt>
</event>
<event>
 4      1 +5.9529000e-06 6.42213500e+02 7.81860800e-03 9.12807200e-02
        2 -1    0    0  501    0 +0.0000000000e+00 +0.0000000000e+00 +5.2609559583e+02 5.2609559583e+02 0.0000000000e+00 0.0000e+00 1.0000e+00
       -2 -1    0    0    0  501 -0.0000000000e+00 -0.0000000000e+00 -1.9599010990e+02 1.9599010990e+02 0.0000000000e+00 0.0000e+00 -1.0000e+00
      -13  1    1    2    0    0 +4.2448739722e+01 +2.6388850762e+02 +3.6514798300e+02 4.5251750182e+02 0.0000000000e+00 0.0000e+00 1.0000e+00
       13  1    1    2    0    0 -4.2448739722e+01 -2.6388850762e+02 -3.5042497068e+01 2.6956820391e+02 0.0000000000e+00 0.0000e+00 -1.0000e+00
<mgrwt>
<rscale>  0 0.64221346E+03</rscale>
<asrwt>0</asrwt>
<pdfrwt beam="1">  1        2 0.80937784E-01 0.64221346E+03</pdfrwt>
<pdfrwt beam="2">  1       -2 0.30152325E-01 0.64221346E+03</pdfrwt>
<totfact> 0.68872465E+02</totfact>
</mgrwt>
<rwgt>
<wgt id='morphing_basis_vector_1'> +2.3594708e-04 </wgt>
<wgt id='morphing_basis_vector_2'> +2.3608683e-04 </wgt>
<wgt id='morphing_basis_vector_3'> +1.6755193e-04 </wgt>
<wgt id='morphing_basis_vector_4'> +3.9036736e-05 </wgt>
<wgt id='morphing_basis_vector_5'> +1.1408431e-04 </wgt>
</rwgt>
</event>
</LesHouchesEvents>
